# t (s)	mx ()	my ()	mz ()	E_total (J)	E_Zeeman (J)	Angle (rad)	Field (T)
0	1	-3.5457358e-12	0	-2.5863215e-15	-2.5871999e-15	0	100
0	0.9950041	0.09983337	0	-2.5863215e-15	-2.5871997e-15	0.1	100
0	0.9800666	0.19866924	0	-2.5863221e-15	-2.5872003e-15	0.2	100
0	0.95533645	0.29552013	0	-2.5863215e-15	-2.5871999e-15	0.3	100
0	0.92106104	0.38941827	0	-2.5863213e-15	-2.5871997e-15	0.4	100
0	0.87758255	0.4794255	0	-2.5863215e-15	-2.5872003e-15	0.5	100
0	0.82533574	0.56464237	0	-2.5863217e-15	-2.5872003e-15	0.6	100
0	0.7648422	0.64421767	0	-2.5863217e-15	-2.5872003e-15	0.7	100
0	0.6967068	0.71735615	0	-2.5863217e-15	-2.5872003e-15	0.8	100
0	0.62161	0.7833269	0	-2.586321e-15	-2.5872e-15	0.9	100
0	0.5403023	0.8414711	0	-2.5863213e-15	-2.5871997e-15	1	100
0	0.453596	0.89120734	0	-2.5863213e-15	-2.5871997e-15	1.1	100
0	0.36235765	0.93203914	0	-2.5863215e-15	-2.5871999e-15	1.2	100
0	0.26749873	0.9635582	0	-2.5863215e-15	-2.5871999e-15	1.3	100
0	0.16996706	0.9854496	0	-2.5863215e-15	-2.5871999e-15	1.4	100
0	0.07073717	0.9974949	0	-2.5863215e-15	-2.5871999e-15	1.5	100
0	-0.029199507	0.99957365	0	-2.5863215e-15	-2.5871997e-15	1.6	100
0	-0.12884443	0.9916647	0	-2.5863215e-15	-2.5871997e-15	1.7	100
0	-0.227202	0.97384757	0	-2.586322e-15	-2.5872003e-15	1.8	100
0	-0.32328945	0.9463001	0	-2.5863217e-15	-2.5871999e-15	1.9	100
0	-0.41614676	0.90929747	0	-2.586322e-15	-2.5872003e-15	2	100
0	-0.50484604	0.86320937	0	-2.5863215e-15	-2.5872e-15	2.1	100
0	-0.58850104	0.8084964	0	-2.5863215e-15	-2.5871999e-15	2.2	100
0	-0.6662761	0.74570525	0	-2.5863213e-15	-2.5871999e-15	2.3	100
0	-0.7373938	0.67546326	0	-2.5863215e-15	-2.5872e-15	2.4	100
0	-0.80114377	0.59847206	0	-2.5863217e-15	-2.5872003e-15	2.5	100
0	-0.8568888	0.51550126	0	-2.5863217e-15	-2.5872e-15	2.6	100
0	-0.90407217	0.4273798	0	-2.5863215e-15	-2.5872e-15	2.7	100
0	-0.9422223	0.33498803	0	-2.5863217e-15	-2.5872003e-15	2.8	100
0	-0.9709581	0.23924923	0	-2.5863213e-15	-2.5871997e-15	2.9	100
0	-0.9899925	0.14111994	0	-2.5863217e-15	-2.5871999e-15	3	100
0	-0.9991351	0.041580644	0	-2.5863217e-15	-2.5872e-15	3.1	100
0	-0.9982948	-0.05837412	0	-2.5863213e-15	-2.5871997e-15	3.2	100
0	-0.9874798	-0.15774563	0	-2.5863213e-15	-2.5871999e-15	3.3	100
0	-0.9667982	-0.25554103	0	-2.5863213e-15	-2.5871999e-15	3.4	100
0	-0.9364567	-0.3507831	0	-2.5863217e-15	-2.5871999e-15	3.5	100
0	-0.89675844	-0.44252035	0	-2.5863215e-15	-2.5872e-15	3.6	100
0	-0.84810007	-0.52983606	0	-2.5863217e-15	-2.5872e-15	3.7	100
0	-0.79096776	-0.61185783	0	-2.5863215e-15	-2.5872e-15	3.8	100
0	-0.7259323	-0.6877662	0	-2.5863215e-15	-2.5872003e-15	3.9	100
0	-0.65364355	-0.75680256	0	-2.5863217e-15	-2.5872003e-15	4	100
0	-0.5748239	-0.8182772	0	-2.5863215e-15	-2.5872e-15	4.1	100
0	-0.49026072	-0.87157583	0	-2.5863213e-15	-2.5871999e-15	4.2	100
0	-0.40079907	-0.9161658	0	-2.5863213e-15	-2.5872e-15	4.3	100
0	-0.30733278	-0.95160204	0	-2.5863215e-15	-2.5871999e-15	4.4	100
0	-0.2107957	-0.97753006	0	-2.5863215e-15	-2.5871999e-15	4.5	100
0	-0.11215248	-0.9936911	0	-2.5863217e-15	-2.5871999e-15	4.6	100
0	-0.012388658	-0.9999232	0	-2.5863213e-15	-2.5871999e-15	4.7	100
0	0.08749893	-0.99616456	0	-2.5863215e-15	-2.5871999e-15	4.8	100
0	0.1865123	-0.9824526	0	-2.5863215e-15	-2.5872e-15	4.9	100
0	0.28366208	-0.95892423	0	-2.5863217e-15	-2.5871999e-15	5	100
0	0.37797764	-0.92581475	0	-2.5863215e-15	-2.5872e-15	5.1	100
0	0.4685166	-0.8834547	0	-2.5863215e-15	-2.5871999e-15	5.2	100
0	0.5543743	-0.8322675	0	-2.5863215e-15	-2.5872e-15	5.3	100
0	0.63469285	-0.7727645	0	-2.5863215e-15	-2.5872e-15	5.4	100
0	0.7086698	-0.70554036	0	-2.5863215e-15	-2.5872003e-15	5.5	100
0	0.77556586	-0.6312666	0	-2.5863217e-15	-2.5872003e-15	5.6	100
0	0.83471286	-0.55068547	0	-2.5863213e-15	-2.5871997e-15	5.7	100
0	0.8855196	-0.4646021	0	-2.5863213e-15	-2.5871999e-15	5.8	100
0	0.92747843	-0.37387654	0	-2.5863213e-15	-2.5872e-15	5.9	100
0	0.96017027	-0.27941537	0	-2.5863215e-15	-2.5871999e-15	6	100
0	0.98326844	-0.18216242	0	-2.5863215e-15	-2.5871997e-15	6.1	100
0	0.99654204	-0.08308935	0	-2.5863221e-15	-2.5872003e-15	6.2	100
0	0.9999997	-1.2995031e-11	0	-1.2927218e-15	-1.2935996e-15	0	50
0	0.9950039	0.099833205	0	-1.2927219e-15	-1.2935998e-15	0.1	50
0	0.98006636	0.19866896	0	-1.2927217e-15	-1.2935997e-15	0.2	50
0	0.95533645	0.29551974	0	-1.2927216e-15	-1.2935998e-15	0.3	50
0	0.92106104	0.3894179	0	-1.2927217e-15	-1.2935998e-15	0.4	50
0	0.87758255	0.47942516	0	-1.2927216e-15	-1.2935998e-15	0.5	50
0	0.82533574	0.5646422	0	-1.2927216e-15	-1.2936e-15	0.6	50
0	0.7648422	0.6442175	0	-1.2927216e-15	-1.2936e-15	0.7	50
0	0.6967066	0.71735615	0	-1.2927216e-15	-1.2936e-15	0.8	50
0	0.6216098	0.783327	0	-1.2927216e-15	-1.2936e-15	0.9	50
0	0.54030204	0.8414711	0	-1.2927216e-15	-1.2935999e-15	1	50
0	0.4535957	0.8912075	0	-1.2927218e-15	-1.2936e-15	1.1	50
0	0.36235732	0.9320391	0	-1.2927216e-15	-1.2935998e-15	1.2	50
0	0.2674984	0.9635581	0	-1.2927217e-15	-1.2935997e-15	1.3	50
0	0.16996682	0.98544955	0	-1.2927217e-15	-1.2935997e-15	1.4	50
0	0.070737064	0.99749476	0	-1.2927217e-15	-1.2935996e-15	1.5	50
0	-0.029199464	0.9995733	0	-1.2927217e-15	-1.2935996e-15	1.6	50
0	-0.12884425	0.99166465	0	-1.2927217e-15	-1.2935996e-15	1.7	50
0	-0.22720169	0.9738475	0	-1.2927218e-15	-1.2935998e-15	1.8	50
0	-0.3232891	0.9463001	0	-1.2927217e-15	-1.2935998e-15	1.9	50
0	-0.41614643	0.9092974	0	-1.2927217e-15	-1.2935998e-15	2	50
0	-0.50484574	0.8632095	0	-1.2927215e-15	-1.2935999e-15	2.1	50
0	-0.5885009	0.80849653	0	-1.2927215e-15	-1.2935998e-15	2.2	50
0	-0.6662759	0.7457052	0	-1.2927212e-15	-1.2935998e-15	2.3	50
0	-0.7373937	0.6754631	0	-1.2927215e-15	-1.2935999e-15	2.4	50
0	-0.80114377	0.5984719	0	-1.2927215e-15	-1.2935998e-15	2.5	50
0	-0.8568889	0.515501	0	-1.2927217e-15	-1.2936e-15	2.6	50
0	-0.9040722	0.42737946	0	-1.2927216e-15	-1.2935998e-15	2.7	50
0	-0.9422224	0.33498767	0	-1.2927217e-15	-1.2935996e-15	2.8	50
0	-0.97095805	0.23924892	0	-1.2927216e-15	-1.2935997e-15	2.9	50
0	-0.98999226	0.14111973	0	-1.2927216e-15	-1.2935996e-15	3	50
0	-0.99913484	0.041580584	0	-1.2927216e-15	-1.2935994e-15	3.1	50
0	-0.9982945	-0.058374032	0	-1.2927216e-15	-1.2935995e-15	3.2	50
0	-0.9874795	-0.1577454	0	-1.2927216e-15	-1.2935995e-15	3.3	50
0	-0.9667982	-0.2555407	0	-1.2927217e-15	-1.2935997e-15	3.4	50
0	-0.9364566	-0.35078278	0	-1.2927216e-15	-1.2935998e-15	3.5	50
0	-0.89675844	-0.44252002	0	-1.2927215e-15	-1.2935998e-15	3.6	50
0	-0.8481001	-0.5298358	0	-1.2927217e-15	-1.2936e-15	3.7	50
0	-0.79096776	-0.6118577	0	-1.2927215e-15	-1.2935999e-15	3.8	50
0	-0.72593224	-0.68776613	0	-1.2927215e-15	-1.2935999e-15	3.9	50
0	-0.6536435	-0.75680256	0	-1.2927214e-15	-1.2935998e-15	4	50
0	-0.5748237	-0.81827724	0	-1.2927216e-15	-1.2936002e-15	4.1	50
0	-0.4902604	-0.87157583	0	-1.2927216e-15	-1.2935998e-15	4.2	50
0	-0.40079874	-0.91616595	0	-1.2927216e-15	-1.2935997e-15	4.3	50
0	-0.30733243	-0.95160204	0	-1.2927218e-15	-1.2935997e-15	4.4	50
0	-0.2107954	-0.97753	0	-1.2927218e-15	-1.2935998e-15	4.5	50
0	-0.1121523	-0.9936908	0	-1.2927218e-15	-1.2935997e-15	4.6	50
0	-0.012388637	-0.999923	0	-1.2927218e-15	-1.2935997e-15	4.7	50
0	0.08749881	-0.9961644	0	-1.2927219e-15	-1.2935997e-15	4.8	50
0	0.18651204	-0.9824524	0	-1.2927217e-15	-1.2935997e-15	4.9	50
0	0.28366172	-0.95892423	0	-1.2927216e-15	-1.2935997e-15	5	50
0	0.37797728	-0.92581475	0	-1.2927217e-15	-1.2935999e-15	5.1	50
0	0.4685162	-0.8834547	0	-1.2927216e-15	-1.2935998e-15	5.2	50
0	0.55437404	-0.8322675	0	-1.2927216e-15	-1.2935999e-15	5.3	50
0	0.6346927	-0.7727646	0	-1.2927216e-15	-1.2935999e-15	5.4	50
0	0.7086697	-0.7055403	0	-1.2927214e-15	-1.2935999e-15	5.5	50
0	0.775566	-0.6312665	0	-1.2927216e-15	-1.2935999e-15	5.6	50
0	0.83471286	-0.5506852	0	-1.2927212e-15	-1.2935997e-15	5.7	50
0	0.88551956	-0.46460176	0	-1.2927216e-15	-1.2935998e-15	5.8	50
0	0.92747843	-0.37387618	0	-1.2927218e-15	-1.2935998e-15	5.9	50
0	0.96017027	-0.2794151	0	-1.2927216e-15	-1.2935996e-15	6	50
0	0.9832682	-0.18216217	0	-1.2927217e-15	-1.2935996e-15	6.1	50
0	0.9965418	-0.08308922	0	-1.292722e-15	-1.2936e-15	6.2	50
0	0.9999988	-1.6630761e-11	0	-6.4592207e-16	-6.4679923e-16	0	25
0	0.9950031	0.099832624	0	-6.459221e-16	-6.4679933e-16	0.1	25
0	0.98006576	0.19866788	0	-6.4592197e-16	-6.467993e-16	0.2	25
0	0.9553362	0.2955184	0	-6.4592197e-16	-6.4679955e-16	0.3	25
0	0.921061	0.38941643	0	-6.4592186e-16	-6.4679955e-16	0.4	25
0	0.87758297	0.4794239	0	-6.4592165e-16	-6.4679965e-16	0.5	25
0	0.825336	0.56464124	0	-6.4592154e-16	-6.4679965e-16	0.6	25
0	0.7648423	0.6442171	0	-6.459215e-16	-6.4679976e-16	0.7	25
0	0.6967065	0.71735597	0	-6.4592154e-16	-6.4679986e-16	0.8	25
0	0.62160915	0.7833271	0	-6.4592154e-16	-6.467997e-16	0.9	25
0	0.54030097	0.8414714	0	-6.459216e-16	-6.467997e-16	1	25
0	0.45359433	0.89120764	0	-6.459217e-16	-6.4679965e-16	1.1	25
0	0.36235586	0.932039	0	-6.459218e-16	-6.4679955e-16	1.2	25
0	0.2674971	0.96355784	0	-6.459219e-16	-6.4679944e-16	1.3	25
0	0.16996586	0.98544896	0	-6.4592207e-16	-6.4679933e-16	1.4	25
0	0.07073664	0.997494	0	-6.4592207e-16	-6.467993e-16	1.5	25
0	-0.029199285	0.9995726	0	-6.45922e-16	-6.467993e-16	1.6	25
0	-0.1288435	0.9916639	0	-6.4592207e-16	-6.467993e-16	1.7	25
0	-0.2272005	0.973847	0	-6.4592197e-16	-6.4679933e-16	1.8	25
0	-0.32328767	0.9462998	0	-6.459219e-16	-6.4679955e-16	1.9	25
0	-0.41614506	0.9092975	0	-6.459218e-16	-6.467996e-16	2	25
0	-0.50484455	0.86320966	0	-6.4592165e-16	-6.4679976e-16	2.1	25
0	-0.5885001	0.8084967	0	-6.4592165e-16	-6.4679976e-16	2.2	25
0	-0.66627556	0.74570525	0	-6.459216e-16	-6.4679986e-16	2.3	25
0	-0.73739386	0.67546266	0	-6.459215e-16	-6.467998e-16	2.4	25
0	-0.8011439	0.59847116	0	-6.459216e-16	-6.4679976e-16	2.5	25
0	-0.8568891	0.5154999	0	-6.4592165e-16	-6.4679976e-16	2.6	25
0	-0.9040723	0.4273781	0	-6.4592186e-16	-6.467997e-16	2.7	25
0	-0.9422222	0.33498624	0	-6.459219e-16	-6.4679955e-16	2.8	25
0	-0.9709577	0.2392477	0	-6.4592197e-16	-6.467994e-16	2.9	25
0	-0.98999155	0.14111891	0	-6.4592207e-16	-6.4679933e-16	3	25
0	-0.9991341	0.041580327	0	-6.459221e-16	-6.4679933e-16	3.1	25
0	-0.99829364	-0.05837368	0	-6.4592207e-16	-6.467993e-16	3.2	25
0	-0.9874789	-0.1577445	0	-6.4592197e-16	-6.4679923e-16	3.3	25
0	-0.9667977	-0.25553942	0	-6.459219e-16	-6.4679933e-16	3.4	25
0	-0.93645656	-0.35078135	0	-6.4592186e-16	-6.4679955e-16	3.5	25
0	-0.89675856	-0.44251865	0	-6.459217e-16	-6.467996e-16	3.6	25
0	-0.8481004	-0.5298347	0	-6.4592154e-16	-6.4679965e-16	3.7	25
0	-0.790968	-0.61185706	0	-6.459216e-16	-6.467998e-16	3.8	25
0	-0.72593224	-0.6877659	0	-6.459216e-16	-6.4679986e-16	3.9	25
0	-0.65364313	-0.75680256	0	-6.4592154e-16	-6.467998e-16	4	25
0	-0.57482284	-0.81827754	0	-6.4592165e-16	-6.467998e-16	4.1	25
0	-0.4902592	-0.87157613	0	-6.459217e-16	-6.467997e-16	4.2	25
0	-0.4007973	-0.91616607	0	-6.4592176e-16	-6.4679955e-16	4.3	25
0	-0.30733103	-0.95160174	0	-6.459219e-16	-6.467995e-16	4.4	25
0	-0.21079433	-0.97752947	0	-6.4592197e-16	-6.4679933e-16	4.5	25
0	-0.11215164	-0.9936901	0	-6.459221e-16	-6.4679933e-16	4.6	25
0	-0.012388563	-0.99992216	0	-6.459221e-16	-6.467993e-16	4.7	25
0	0.087498285	-0.9961635	0	-6.4592207e-16	-6.467993e-16	4.8	25
0	0.186511	-0.98245186	0	-6.45922e-16	-6.4679933e-16	4.9	25
0	0.2836604	-0.9589238	0	-6.459219e-16	-6.4679944e-16	5	25
0	0.37797585	-0.9258147	0	-6.4592186e-16	-6.4679955e-16	5.1	25
0	0.46851495	-0.8834549	0	-6.4592176e-16	-6.467997e-16	5.2	25
0	0.554373	-0.83226776	0	-6.459216e-16	-6.467997e-16	5.3	25
0	0.6346921	-0.77276474	0	-6.4592154e-16	-6.4679986e-16	5.4	25
0	0.70866966	-0.7055401	0	-6.4592154e-16	-6.4679986e-16	5.5	25
0	0.77556616	-0.6312659	0	-6.459215e-16	-6.4679986e-16	5.6	25
0	0.8347131	-0.5506842	0	-6.4592154e-16	-6.4679976e-16	5.7	25
0	0.88551986	-0.46460044	0	-6.459217e-16	-6.467996e-16	5.8	25
0	0.92747843	-0.37387475	0	-6.4592186e-16	-6.467995e-16	5.9	25
0	0.9601699	-0.27941373	0	-6.4592186e-16	-6.467994e-16	6	25
0	0.98326766	-0.18216118	0	-6.45922e-16	-6.467993e-16	6.1	25
0	0.996541	-0.08308874	0	-6.459221e-16	-6.467993e-16	6.2	25
0	0.99999565	-2.735796e-12	0	-3.225228e-16	-3.2339858e-16	0	12.5
0	0.9950002	0.099830285	0	-3.2252272e-16	-3.2339858e-16	0.1	12.5
0	0.9800638	0.1986637	0	-3.2252267e-16	-3.2339877e-16	0.2	12.5
0	0.95533526	0.29551306	0	-3.2252246e-16	-3.2339893e-16	0.3	12.5
0	0.92106134	0.3894109	0	-3.2252227e-16	-3.233992e-16	0.4	12.5
0	0.87758386	0.47941902	0	-3.22522e-16	-3.2339938e-16	0.5	12.5
0	0.825337	0.5646377	0	-3.2252188e-16	-3.233995e-16	0.6	12.5
0	0.7648428	0.64421517	0	-3.225217e-16	-3.2339964e-16	0.7	12.5
0	0.6967057	0.71735567	0	-3.225217e-16	-3.2339967e-16	0.8	12.5
0	0.6216068	0.78332794	0	-3.2252174e-16	-3.2339961e-16	0.9	12.5
0	0.5402971	0.84147257	0	-3.2252185e-16	-3.2339943e-16	1	12.5
0	0.45358923	0.8912084	0	-3.2252206e-16	-3.233993e-16	1.1	12.5
0	0.36235026	0.9320389	0	-3.225223e-16	-3.2339909e-16	1.2	12.5
0	0.26749197	0.96355647	0	-3.2252254e-16	-3.2339887e-16	1.3	12.5
0	0.16996215	0.98544645	0	-3.225227e-16	-3.233987e-16	1.4	12.5
0	0.070734955	0.9974908	0	-3.2252278e-16	-3.2339858e-16	1.5	12.5
0	-0.029198585	0.99956924	0	-3.225228e-16	-3.2339858e-16	1.6	12.5
0	-0.12884055	0.9916612	0	-3.2252275e-16	-3.233986e-16	1.7	12.5
0	-0.22719587	0.9738452	0	-3.2252262e-16	-3.2339882e-16	1.8	12.5
0	-0.3232822	0.94629925	0	-3.225224e-16	-3.23399e-16	1.9	12.5
0	-0.41613957	0.90929806	0	-3.225222e-16	-3.2339922e-16	2	12.5
0	-0.5048401	0.86321074	0	-3.2252196e-16	-3.233994e-16	2.1	12.5
0	-0.58849704	0.80849767	0	-3.2252182e-16	-3.233996e-16	2.2	12.5
0	-0.6662742	0.74570537	0	-3.225217e-16	-3.2339967e-16	2.3	12.5
0	-0.73739386	0.6754616	0	-3.2252164e-16	-3.2339961e-16	2.4	12.5
0	-0.80114484	0.5984683	0	-3.2252177e-16	-3.233996e-16	2.5	12.5
0	-0.8568902	0.5154956	0	-3.225219e-16	-3.2339938e-16	2.6	12.5
0	-0.90407294	0.4273727	0	-3.2252211e-16	-3.2339922e-16	2.7	12.5
0	-0.9422217	0.33498067	0	-3.225224e-16	-3.2339906e-16	2.8	12.5
0	-0.97095597	0.2392429	0	-3.225226e-16	-3.2339882e-16	2.9	12.5
0	-0.98998886	0.14111571	0	-3.2252272e-16	-3.233987e-16	3	12.5
0	-0.9991308	0.041579332	0	-3.225228e-16	-3.2339858e-16	3.1	12.5
0	-0.99829054	-0.058372285	0	-3.2252278e-16	-3.2339858e-16	3.2	12.5
0	-0.9874764	-0.157741	0	-3.2252267e-16	-3.2339864e-16	3.3	12.5
0	-0.9667963	-0.25553444	0	-3.2252256e-16	-3.2339887e-16	3.4	12.5
0	-0.93645626	-0.35077575	0	-3.2252235e-16	-3.2339909e-16	3.5	12.5
0	-0.8967594	-0.4425134	0	-3.2252211e-16	-3.2339927e-16	3.6	12.5
0	-0.84810156	-0.5298306	0	-3.2252193e-16	-3.233995e-16	3.7	12.5
0	-0.7909687	-0.61185443	0	-3.2252177e-16	-3.233996e-16	3.8	12.5
0	-0.72593206	-0.6877649	0	-3.225217e-16	-3.2339967e-16	3.9	12.5
0	-0.65364146	-0.756803	0	-3.225217e-16	-3.2339967e-16	4	12.5
0	-0.5748195	-0.81827855	0	-3.2252182e-16	-3.233996e-16	4.1	12.5
0	-0.4902545	-0.87157714	0	-3.2252198e-16	-3.233994e-16	4.2	12.5
0	-0.40079182	-0.91616637	0	-3.225222e-16	-3.2339914e-16	4.3	12.5
0	-0.30732563	-0.95160097	0	-3.2252246e-16	-3.2339895e-16	4.4	12.5
0	-0.21078989	-0.97752744	0	-3.2252264e-16	-3.2339877e-16	4.5	12.5
0	-0.11214905	-0.99368715	0	-3.2252278e-16	-3.2339866e-16	4.6	12.5
0	-0.012388265	-0.9999188	0	-3.2252283e-16	-3.2339858e-16	4.7	12.5
0	0.08749623	-0.9961605	0	-3.2252278e-16	-3.233986e-16	4.8	12.5
0	0.18650699	-0.9824496	0	-3.2252267e-16	-3.2339871e-16	4.9	12.5
0	0.28365514	-0.9589228	0	-3.2252249e-16	-3.233989e-16	5	12.5
0	0.3779703	-0.92581475	0	-3.2252225e-16	-3.233991e-16	5.1	12.5
0	0.46850994	-0.8834558	0	-3.2252206e-16	-3.2339935e-16	5.2	12.5
0	0.5543694	-0.8322689	0	-3.2252188e-16	-3.2339954e-16	5.3	12.5
0	0.6346901	-0.7727652	0	-3.2252174e-16	-3.2339964e-16	5.4	12.5
0	0.7086691	-0.7055396	0	-3.2252172e-16	-3.2339967e-16	5.5	12.5
0	0.7755668	-0.6312638	0	-3.2252172e-16	-3.233996e-16	5.6	12.5
0	0.83471423	-0.5506805	0	-3.225219e-16	-3.2339954e-16	5.7	12.5
0	0.88552064	-0.4645955	0	-3.225221e-16	-3.2339932e-16	5.8	12.5
0	0.92747855	-0.3738692	0	-3.2252227e-16	-3.2339906e-16	5.9	12.5
0	0.9601687	-0.2794085	0	-3.2252246e-16	-3.233989e-16	6	12.5
0	0.9832654	-0.18215722	0	-3.225227e-16	-3.2339874e-16	6.1	12.5
0	0.99653804	-0.083086774	0	-3.225228e-16	-3.2339864e-16	6.2	12.5
0	0.99998367	-5.068422e-11	0	-1.6082419e-16	-1.6169736e-16	0	6.25
0	0.99498945	0.09982132	0	-1.6082411e-16	-1.6169744e-16	0.1	6.25
0	0.98005635	0.19864742	0	-1.6082384e-16	-1.6169766e-16	0.2	6.25
0	0.9553322	0.29549253	0	-1.608235e-16	-1.6169803e-16	0.3	6.25
0	0.92106277	0.38938966	0	-1.6082306e-16	-1.6169844e-16	0.4	6.25
0	0.8775881	0.47940052	0	-1.6082264e-16	-1.6169885e-16	0.5	6.25
0	0.8253417	0.56462455	0	-1.6082228e-16	-1.6169919e-16	0.6	6.25
0	0.7648451	0.64420843	0	-1.6082207e-16	-1.6169941e-16	0.7	6.25
0	0.6967032	0.7173548	0	-1.6082199e-16	-1.6169945e-16	0.8	6.25
0	0.6215982	0.78333116	0	-1.6082211e-16	-1.6169934e-16	0.9	6.25
0	0.540282	0.84147733	0	-1.6082237e-16	-1.616991e-16	1	6.25
0	0.45356956	0.89121205	0	-1.6082274e-16	-1.6169872e-16	1.1	6.25
0	0.36232886	0.9320391	0	-1.608232e-16	-1.616983e-16	1.2	6.25
0	0.26747233	0.9635522	0	-1.608236e-16	-1.6169791e-16	1.3	6.25
0	0.16994774	0.9854379	0	-1.6082395e-16	-1.616976e-16	1.4	6.25
0	0.070728496	0.9974795	0	-1.6082415e-16	-1.616974e-16	1.5	6.25
0	-0.029195886	0.9995574	0	-1.608242e-16	-1.6169737e-16	1.6	6.25
0	-0.1288292	0.9916512	0	-1.6082403e-16	-1.6169749e-16	1.7	6.25
0	-0.227178	0.9738391	0	-1.6082375e-16	-1.6169777e-16	1.8	6.25
0	-0.32326102	0.94629765	0	-1.6082337e-16	-1.6169814e-16	1.9	6.25
0	-0.41611877	0.90930045	0	-1.6082294e-16	-1.6169856e-16	2	6.25
0	-0.50482285	0.86321545	0	-1.608225e-16	-1.6169893e-16	2.1	6.25
0	-0.58848566	0.80850196	0	-1.608222e-16	-1.6169925e-16	2.2	6.25
0	-0.6662692	0.74570656	0	-1.60822e-16	-1.6169944e-16	2.3	6.25
0	-0.7373944	0.6754574	0	-1.6082202e-16	-1.6169945e-16	2.4	6.25
0	-0.8011489	0.59845775	0	-1.6082216e-16	-1.6169928e-16	2.5	6.25
0	-0.85689497	0.5154789	0	-1.6082248e-16	-1.61699e-16	2.6	6.25
0	-0.9040757	0.4273522	0	-1.6082286e-16	-1.616986e-16	2.7	6.25
0	-0.9422208	0.3349594	0	-1.6082335e-16	-1.6169823e-16	2.8	6.25
0	-0.9709503	0.2392244	0	-1.6082371e-16	-1.6169781e-16	2.9	6.25
0	-0.9899794	0.14110342	0	-1.6082401e-16	-1.6169753e-16	3	6.25
0	-0.9991191	0.041575495	0	-1.6082417e-16	-1.6169737e-16	3.1	6.25
0	-0.99827904	-0.05836693	0	-1.6082416e-16	-1.616974e-16	3.2	6.25
0	-0.98746747	-0.15772745	0	-1.6082398e-16	-1.6169757e-16	3.3	6.25
0	-0.96679145	-0.25551522	0	-1.6082363e-16	-1.6169785e-16	3.4	6.25
0	-0.9364561	-0.35075432	0	-1.6082322e-16	-1.6169826e-16	3.5	6.25
0	-0.8967626	-0.44249338	0	-1.6082281e-16	-1.6169868e-16	3.6	6.25
0	-0.8481063	-0.52981496	0	-1.6082243e-16	-1.6169907e-16	3.7	6.25
0	-0.7909725	-0.61184496	0	-1.6082212e-16	-1.6169932e-16	3.8	6.25
0	-0.7259318	-0.6877617	0	-1.6082199e-16	-1.6169945e-16	3.9	6.25
0	-0.65363544	-0.75680476	0	-1.6082203e-16	-1.6169941e-16	4	6.25
0	-0.57480705	-0.81828296	0	-1.6082224e-16	-1.6169922e-16	4.1	6.25
0	-0.49023646	-0.8715817	0	-1.6082259e-16	-1.616989e-16	4.2	6.25
0	-0.4007707	-0.9161683	0	-1.60823e-16	-1.616985e-16	4.3	6.25
0	-0.30730474	-0.95159864	0	-1.6082343e-16	-1.6169809e-16	4.4	6.25
0	-0.21077293	-0.9775206	0	-1.6082383e-16	-1.6169772e-16	4.5	6.25
0	-0.112139046	-0.9936767	0	-1.608241e-16	-1.6169748e-16	4.6	6.25
0	-0.012387115	-0.999907	0	-1.608242e-16	-1.6169737e-16	4.7	6.25
0	0.0874883	-0.9961496	0	-1.6082412e-16	-1.6169744e-16	4.8	6.25
0	0.18649146	-0.98244166	0	-1.6082388e-16	-1.6169762e-16	4.9	6.25
0	0.28363493	-0.9589193	0	-1.6082354e-16	-1.6169798e-16	5	6.25
0	0.37794894	-0.9258157	0	-1.6082311e-16	-1.6169839e-16	5.1	6.25
0	0.4684909	-0.88345987	0	-1.6082266e-16	-1.6169879e-16	5.2	6.25
0	0.5543553	-0.8322737	0	-1.608223e-16	-1.6169915e-16	5.3	6.25
0	0.63468254	-0.77276796	0	-1.6082208e-16	-1.6169938e-16	5.4	6.25
0	0.7086675	-0.70553786	0	-1.6082199e-16	-1.6169945e-16	5.5	6.25
0	0.77556956	-0.63125587	0	-1.608221e-16	-1.6169938e-16	5.6	6.25
0	0.83471906	-0.5506663	0	-1.6082233e-16	-1.6169913e-16	5.7	6.25
0	0.88552463	-0.46457624	0	-1.6082269e-16	-1.6169876e-16	5.8	6.25
0	0.9274792	-0.3738478	0	-1.608231e-16	-1.6169835e-16	5.9	6.25
0	0.9601651	-0.27938843	0	-1.6082355e-16	-1.6169795e-16	6	6.25
0	0.98325735	-0.182142	0	-1.608239e-16	-1.6169762e-16	6.1	6.25
0	0.9965269	-0.083079234	0	-1.6082411e-16	-1.616974e-16	6.2	6.25
0	0.9999421	-2.200156e-10	0	-7.9976666e-17	-8.0845324e-17	0	3.125
0	0.99495244	0.09978765	0	-7.997649e-17	-8.0845463e-17	0.1	3.125
0	0.9800317	0.19858636	0	-7.9976024e-17	-8.0845893e-17	0.2	3.125
0	0.95532423	0.29541534	0	-7.9975316e-17	-8.0846535e-17	0.3	3.125
0	0.92107064	0.38931003	0	-7.9974495e-17	-8.08473e-17	0.4	3.125
0	0.8776065	0.4793314	0	-7.9973694e-17	-8.084805e-17	0.5	3.125
0	0.8253614	0.5645756	0	-7.997301e-17	-8.084867e-17	0.6	3.125
0	0.76485544	0.644184	0	-7.997258e-17	-8.084906e-17	0.7	3.125
0	0.6966954	0.7173529	0	-7.9972464e-17	-8.0849176e-17	0.8	3.125
0	0.62156653	0.78334534	0	-7.997267e-17	-8.084897e-17	0.9	3.125
0	0.5402265	0.8414977	0	-7.997319e-17	-8.084851e-17	1	3.125
0	0.453496	0.89122826	0	-7.997392e-17	-8.084783e-17	1.1	3.125
0	0.36224845	0.9320428	0	-7.9974747e-17	-8.084707e-17	1.2	3.125
0	0.26739845	0.9635391	0	-7.9975554e-17	-8.0846343e-17	1.3	3.125
0	0.1698937	0.9854091	0	-7.9976196e-17	-8.084576e-17	1.4	3.125
0	0.070704274	0.9974402	0	-7.9976586e-17	-8.08454e-17	1.5	3.125
0	-0.029185764	0.9995163	0	-7.9976646e-17	-8.0845324e-17	1.6	3.125
0	-0.12878664	0.991617	0	-7.9976394e-17	-8.0845576e-17	1.7	3.125
0	-0.22711088	0.9738191	0	-7.9975845e-17	-8.084607e-17	1.8	3.125
0	-0.32318172	0.94629455	0	-7.99751e-17	-8.084676e-17	1.9	3.125
0	-0.41604078	0.9093123	0	-7.997426e-17	-8.084752e-17	2	3.125
0	-0.5047588	0.86323535	0	-7.9973476e-17	-8.0848256e-17	2.1	3.125
0	-0.5884438	0.8085201	0	-7.997286e-17	-8.084882e-17	2.2	3.125
0	-0.66625184	0.74571234	0	-7.997251e-17	-8.084913e-17	2.3	3.125
0	-0.7373979	0.6754429	0	-7.9972497e-17	-8.084915e-17	2.4	3.125
0	-0.80116606	0.5984188	0	-7.997281e-17	-8.084888e-17	2.5	3.125
0	-0.8569152	0.5154173	0	-7.997338e-17	-8.0848315e-17	2.6	3.125
0	-0.9040889	0.42727572	0	-7.997416e-17	-8.0847614e-17	2.7	3.125
0	-0.9422197	0.3348794	0	-7.997499e-17	-8.084685e-17	2.8	3.125
0	-0.97093236	0.23915507	0	-7.997577e-17	-8.084615e-17	2.9	3.125
0	-0.98994666	0.1410573	0	-7.9976335e-17	-8.084561e-17	3	3.125
0	-0.9990784	0.04156111	0	-7.9976626e-17	-8.0845344e-17	3.1	3.125
0	-0.9982391	-0.058346834	0	-7.997661e-17	-8.084537e-17	3.2	3.125
0	-0.9874369	-0.15767673	0	-7.997627e-17	-8.084569e-17	3.3	3.125
0	-0.9667762	-0.25544316	0	-7.997564e-17	-8.084626e-17	3.4	3.125
0	-0.9364577	-0.35067403	0	-7.997485e-17	-8.084699e-17	3.5	3.125
0	-0.8967778	-0.44241825	0	-7.997401e-17	-8.084773e-17	3.6	3.125
0	-0.8481269	-0.52975667	0	-7.9973264e-17	-8.084843e-17	3.7	3.125
0	-0.7909879	-0.6118102	0	-7.997272e-17	-8.084894e-17	3.8	3.125
0	-0.7259323	-0.6877512	0	-7.9972483e-17	-8.0849176e-17	3.9	3.125
0	-0.6536141	-0.7568132	0	-7.997255e-17	-8.08491e-17	4	3.125
0	-0.5747611	-0.81830215	0	-7.9972947e-17	-8.084873e-17	4.1	3.125
0	-0.4901693	-0.87160075	0	-7.997359e-17	-8.084813e-17	4.2	3.125
0	-0.40069172	-0.9161778	0	-7.9974396e-17	-8.084739e-17	4.3	3.125
0	-0.30722657	-0.9515927	0	-7.997523e-17	-8.084664e-17	4.4	3.125
0	-0.21070914	-0.9774978	0	-7.997596e-17	-8.084597e-17	4.5	3.125
0	-0.1121015	-0.99364084	0	-7.997646e-17	-8.084551e-17	4.6	3.125
0	-0.012382808	-0.9998654	0	-7.9976666e-17	-8.0845324e-17	4.7	3.125
0	0.087458625	-0.9961114	0	-7.997653e-17	-8.084544e-17	4.8	3.125
0	0.18643332	-0.98241514	0	-7.99761e-17	-8.084584e-17	4.9	3.125
0	0.28355902	-0.9589091	0	-7.997543e-17	-8.0846456e-17	5	3.125
0	0.3778688	-0.92582184	0	-7.997461e-17	-8.0847204e-17	5.1	3.125
0	0.46841988	-0.88347745	0	-7.997379e-17	-8.084797e-17	5.2	3.125
0	0.5543035	-0.8322938	0	-7.9973086e-17	-8.0848607e-17	5.3	3.125
0	0.6346552	-0.77278006	0	-7.997261e-17	-8.084903e-17	5.4	3.125
0	0.7086632	-0.7055325	0	-7.997245e-17	-8.0849176e-17	5.5	3.125
0	0.7755822	-0.6312273	0	-7.9972636e-17	-8.084902e-17	5.6	3.125
0	0.8347394	-0.55061334	0	-7.997311e-17	-8.084858e-17	5.7	3.125
0	0.8855419	-0.46450448	0	-7.9973813e-17	-8.084791e-17	5.8	3.125
0	0.9274846	-0.37376758	0	-7.997464e-17	-8.0847164e-17	5.9	3.125
0	0.96015406	-0.27931315	0	-7.9975455e-17	-8.084643e-17	6	3.125
0	0.98323023	-0.18208487	0	-7.9976156e-17	-8.084583e-17	6.1	3.125
0	0.9964886	-0.083050966	0	-7.9976546e-17	-8.084543e-17	6.2	3.125
0	0.99980855	-3.1216874e-10	0	-3.955591e-17	-4.0417262e-17	0	1.5625
0	0.99483484	0.099667646	0	-3.9555605e-17	-4.0417517e-17	0.1	1.5625
0	0.97995746	0.19836746	0	-3.9554745e-17	-4.0418258e-17	0.2	1.5625
0	0.9553083	0.29513866	0	-3.9553438e-17	-4.0419347e-17	0.3	1.5625
0	0.9211112	0.3890233	0	-3.9551916e-17	-4.042065e-17	0.4	1.5625
0	0.8776839	0.47908264	0	-3.9550407e-17	-4.0421947e-17	0.5	1.5625
0	0.82544154	0.56440157	0	-3.954915e-17	-4.0423033e-17	0.6	1.5625
0	0.76489997	0.64410025	0	-3.9548352e-17	-4.0423734e-17	0.7	1.5625
0	0.69667244	0.7173521	0	-3.9548127e-17	-4.042392e-17	0.8	1.5625
0	0.62145615	0.783404	0	-3.954852e-17	-4.042357e-17	0.9	1.5625
0	0.540029	0.8415804	0	-3.9549477e-17	-4.0422748e-17	1	1.5625
0	0.45323193	0.8912979	0	-3.9550834e-17	-4.0421577e-17	1.1	1.5625
0	0.3619612	0.9320675	0	-3.955237e-17	-4.0420263e-17	1.2	1.5625
0	0.2671345	0.96350545	0	-3.9553858e-17	-4.0419003e-17	1.3	1.5625
0	0.16970025	0.98531985	0	-3.9555046e-17	-4.0417997e-17	1.4	1.5625
0	0.070617646	0.99731475	0	-3.955576e-17	-4.041739e-17	1.5	1.5625
0	-0.029149642	0.99938405	0	-3.955589e-17	-4.041729e-17	1.6	1.5625
0	-0.1286345	0.9915097	0	-3.955541e-17	-4.0417686e-17	1.7	1.5625
0	-0.22687043	0.973761	0	-3.9554397e-17	-4.0418543e-17	1.8	1.5625
0	-0.3228968	0.94629616	0	-3.9553014e-17	-4.041972e-17	1.9	1.5625
0	-0.41576076	0.90936637	0	-3.9551466e-17	-4.042104e-17	2	1.5625
0	-0.5045295	0.863317	0	-3.9550013e-17	-4.04223e-17	2.1	1.5625
0	-0.588296	0.80859315	0	-3.9548862e-17	-4.0423284e-17	2.2	1.5625
0	-0.66619456	0.7457395	0	-3.9548223e-17	-4.042384e-17	2.3	1.5625
0	-0.7374175	0.67539597	0	-3.954818e-17	-4.042387e-17	2.4	1.5625
0	-0.80123585	0.59828156	0	-3.954875e-17	-4.0423377e-17	2.5	1.5625
0	-0.85699797	0.5151968	0	-3.954984e-17	-4.0422437e-17	2.6	1.5625
0	-0.90414816	0.42699942	0	-3.9551267e-17	-4.04212e-17	2.7	1.5625
0	-0.94222856	0.33459234	0	-3.9552826e-17	-4.041988e-17	2.8	1.5625
0	-0.97088146	0.23890649	0	-3.9554238e-17	-4.0418672e-17	2.9	1.5625
0	-0.98984444	0.140892	0	-3.9555314e-17	-4.0417775e-17	3	1.5625
0	-0.9989476	0.041509833	0	-3.9555853e-17	-4.0417302e-17	3.1	1.5625
0	-0.99811107	-0.05827526	0	-3.9555803e-17	-4.0417345e-17	3.2	1.5625
0	-0.9873418	-0.15749514	0	-3.9555158e-17	-4.041789e-17	3.3	1.5625
0	-0.9667352	-0.25518513	0	-3.9554027e-17	-4.0418864e-17	3.4	1.5625
0	-0.93647623	-0.3503854	0	-3.955257e-17	-4.0420108e-17	3.5	1.5625
0	-0.89684343	-0.4421484	0	-3.9551022e-17	-4.0421425e-17	3.6	1.5625
0	-0.84821	-0.52954894	0	-3.9549636e-17	-4.0422626e-17	3.7	1.5625
0	-0.7910518	-0.61168844	0	-3.954862e-17	-4.0423496e-17	3.8	1.5625
0	-0.7259403	-0.68771833	0	-3.954815e-17	-4.042391e-17	3.9	1.5625
0	-0.65354156	-0.75685084	0	-3.954829e-17	-4.0423784e-17	4	1.5625
0	-0.574598	-0.8183797	0	-3.9549024e-17	-4.0423145e-17	4.1	1.5625
0	-0.48992845	-0.8716804	0	-3.9550238e-17	-4.04221e-17	4.2	1.5625
0	-0.40040752	-0.9162244	0	-3.9551727e-17	-4.042082e-17	4.3	1.5625
0	-0.30694592	-0.9515843	0	-3.9553256e-17	-4.0419502e-17	4.4	1.5625
0	-0.2104805	-0.9774304	0	-3.95546e-17	-4.0418374e-17	4.5	1.5625
0	-0.11196704	-0.9935274	0	-3.955553e-17	-4.0417587e-17	4.6	1.5625
0	-0.012367521	-0.99973214	0	-3.9555906e-17	-4.0417266e-17	4.7	1.5625
0	0.08735247	-0.99599034	0	-3.9555678e-17	-4.0417458e-17	4.8	1.5625
0	0.18622501	-0.9823344	0	-3.9554874e-17	-4.041814e-17	4.9	1.5625
0	0.2832864	-0.95888585	0	-3.955362e-17	-4.04192e-17	5	1.5625
0	0.37758106	-0.92585605	0	-3.955211e-17	-4.0420485e-17	5.1	1.5625
0	0.46816447	-0.88355166	0	-3.9550582e-17	-4.0421795e-17	5.2	1.5625
0	0.55411905	-0.83237565	0	-3.954929e-17	-4.0422917e-17	5.3	1.5625
0	0.6345603	-0.7728308	0	-3.9548418e-17	-4.042367e-17	5.4	1.5625
0	0.7086532	-0.7055192	0	-3.954812e-17	-4.0423926e-17	5.5	1.5625
0	0.77563536	-0.63112825	0	-3.954845e-17	-4.042365e-17	5.6	1.5625
0	0.83482164	-0.5504249	0	-3.954933e-17	-4.0422867e-17	5.7	1.5625
0	0.8856151	-0.46424648	0	-3.955065e-17	-4.0421736e-17	5.8	1.5625
0	0.9275165	-0.37347963	0	-3.9552177e-17	-4.0420432e-17	5.9	1.5625
0	0.9601281	-0.27904248	0	-3.9553682e-17	-4.0419148e-17	6	1.5625
0	0.98314714	-0.1818803	0	-3.955491e-17	-4.0418093e-17	6.1	1.5625
0	0.996366	-0.08294962	0	-3.9555704e-17	-4.0417444e-17	6.2	1.5625
0	0.999432	-8.5241647e-10	0	-1.9350064e-17	-2.020102e-17	0	0.78125
0	0.99450874	0.0992699	0	-1.9349536e-17	-2.0201398e-17	0.1	0.78125
0	0.97976923	0.19764273	0	-1.9348036e-17	-2.020249e-17	0.2	0.78125
0	0.9553073	0.2942162	0	-1.9345784e-17	-2.020415e-17	0.3	0.78125
0	0.92129326	0.38806134	0	-1.9343126e-17	-2.0206145e-17	0.4	0.78125
0	0.87798417	0.47824302	0	-1.9340467e-17	-2.0208165e-17	0.5	0.78125
0	0.8257458	0.56381434	0	-1.9338244e-17	-2.0209888e-17	0.6	0.78125
0	0.765075	0.6438269	0	-1.9336816e-17	-2.0211008e-17	0.7	0.78125
0	0.69661117	0.7173675	0	-1.9336422e-17	-2.0211316e-17	0.8	0.78125
0	0.62109154	0.78362846	0	-1.9337134e-17	-2.021076e-17	0.9	0.78125
0	0.5393579	0.8418973	0	-1.9338824e-17	-2.0209435e-17	1	0.78125
0	0.45234135	0.8915734	0	-1.9341218e-17	-2.0207589e-17	1.1	0.78125
0	0.3609956	0.93219924	0	-1.9343916e-17	-2.0205539e-17	1.2	0.78125
0	0.26625255	0.9634482	0	-1.93465e-17	-2.0203618e-17	1.3	0.78125
0	0.16905947	0.9850844	0	-1.9348564e-17	-2.0202105e-17	1.4	0.78125
0	0.07033198	0.99696374	0	-1.9349798e-17	-2.020121e-17	1.5	0.78125
0	-0.029030528	0.9990119	0	-1.935002e-17	-2.0201053e-17	1.6	0.78125
0	-0.12813017	0.99121624	0	-1.9349192e-17	-2.0201648e-17	1.7	0.78125
0	-0.22607021	0.9736252	0	-1.9347444e-17	-2.0202925e-17	1.8	0.78125
0	-0.32194427	0.9463523	0	-1.9345031e-17	-2.020471e-17	1.9	0.78125
0	-0.41482008	0.9095915	0	-1.9342325e-17	-2.0206744e-17	2	0.78125
0	-0.5037554	0.8636303	0	-1.9339756e-17	-2.0208716e-17	2.1	0.78125
0	-0.58779556	0.8088748	0	-1.933773e-17	-2.0210292e-17	2.2	0.78125
0	-0.66601133	0.7458548	0	-1.9336588e-17	-2.0211189e-17	2.3	0.78125
0	-0.73750633	0.6752482	0	-1.9336523e-17	-2.0211247e-17	2.4	0.78125
0	-0.8015027	0.5978216	0	-1.9337536e-17	-2.0210443e-17	2.5	0.78125