# t (s)	mx ()	my ()	mz ()	E_total (J)	E_Zeeman (J)	Angle (rad)	Field (T)
0	0.9999986	-1.4875292e-11	0	-5.391737e-16	-5.3999933e-16	0	25
0	0.9996976	0.024541117	0	-5.391738e-16	-5.3999933e-16	0.024543693	25
0	0.99879414	0.04906745	0	-5.3917374e-16	-5.3999933e-16	0.049087387	25
0	0.99728924	0.07356423	0	-5.3917374e-16	-5.3999933e-16	0.07363108	25
0	0.9951836	0.09801671	0	-5.3917374e-16	-5.3999933e-16	0.09817477	25
0	0.9924783	0.12241014	0	-5.391738e-16	-5.399994e-16	0.12271846	25
0	0.9891753	0.14672984	0	-5.391737e-16	-5.3999933e-16	0.14726216	25
0	0.9852765	0.17096117	0	-5.391737e-16	-5.3999933e-16	0.17180584	25
0	0.98078424	0.19508949	0	-5.391738e-16	-5.3999944e-16	0.19634955	25
0	0.97570103	0.21910037	0	-5.391737e-16	-5.3999933e-16	0.22089323	25
0	0.9700303	0.24297924	0	-5.391737e-16	-5.399994e-16	0.24543692	25
0	0.96377516	0.2667117	0	-5.391736e-16	-5.3999933e-16	0.2699806	25
0	0.9569394	0.29028362	0	-5.391737e-16	-5.3999944e-16	0.2945243	25
0	0.9495274	0.31368065	0	-5.391736e-16	-5.3999933e-16	0.319068	25
0	0.9415432	0.3368887	0	-5.391735e-16	-5.399993e-16	0.3436117	25
0	0.9329921	0.35989386	0	-5.3917363e-16	-5.3999933e-16	0.3681554	25
0	0.92387885	0.3826823	0	-5.3917363e-16	-5.3999944e-16	0.3926991	25
0	0.9142092	0.40524015	0	-5.391736e-16	-5.399994e-16	0.41724277	25
0	0.9039887	0.42755395	0	-5.3917363e-16	-5.399995e-16	0.44178647	25
0	0.8932238	0.44961014	0	-5.391736e-16	-5.3999933e-16	0.46633017	25
0	0.88192075	0.4713956	0	-5.3917353e-16	-5.3999944e-16	0.49087384	25
0	0.87008643	0.49289703	0	-5.391735e-16	-5.399994e-16	0.5154175	25
0	0.8577281	0.51410174	0	-5.391735e-16	-5.3999944e-16	0.5399612	25
0	0.84485304	0.5349966	0	-5.391736e-16	-5.3999954e-16	0.5645049	25
0	0.8314692	0.55556923	0	-5.3917353e-16	-5.3999954e-16	0.5890486	25
0	0.8175843	0.5758072	0	-5.3917353e-16	-5.3999954e-16	0.6135923	25
0	0.80320704	0.5956984	0	-5.3917353e-16	-5.3999954e-16	0.638136	25
0	0.7883459	0.61523074	0	-5.391735e-16	-5.3999954e-16	0.6626797	25
0	0.77300996	0.63439244	0	-5.3917353e-16	-5.3999954e-16	0.6872234	25
0	0.75720835	0.653172	0	-5.391735e-16	-5.3999954e-16	0.7117671	25
0	0.7409506	0.67155826	0	-5.391734e-16	-5.3999944e-16	0.7363108	25
0	0.7242465	0.6895399	0	-5.391734e-16	-5.3999954e-16	0.7608545	25
0	0.70710623	0.70710623	0	-5.3917353e-16	-5.3999954e-16	0.7853982	25
0	0.68953985	0.7242465	0	-5.391735e-16	-5.3999954e-16	0.8099418	25
0	0.67155826	0.74095064	0	-5.391736e-16	-5.3999954e-16	0.83448553	25
0	0.65317214	0.7572083	0	-5.3917353e-16	-5.3999954e-16	0.85902923	25
0	0.6343924	0.77300996	0	-5.391735e-16	-5.3999954e-16	0.88357294	25
0	0.61523074	0.788346	0	-5.391734e-16	-5.3999944e-16	0.90811664	25
0	0.5956984	0.80320704	0	-5.3917353e-16	-5.3999954e-16	0.93266034	25
0	0.5758072	0.81758434	0	-5.3917353e-16	-5.3999954e-16	0.957204	25
0	0.55556923	0.8314692	0	-5.391735e-16	-5.3999944e-16	0.9817477	25
0	0.5349966	0.84485316	0	-5.391736e-16	-5.399995e-16	1.0062914	25
0	0.5141017	0.8577281	0	-5.3917353e-16	-5.3999954e-16	1.030835	25
0	0.4928971	0.87008643	0	-5.3917353e-16	-5.3999944e-16	1.0553788	25
0	0.4713956	0.88192075	0	-5.3917353e-16	-5.399995e-16	1.0799224	25
0	0.4496102	0.89322376	0	-5.3917363e-16	-5.3999954e-16	1.1044662	25
0	0.42755395	0.9039887	0	-5.391736e-16	-5.3999933e-16	1.1290098	25
0	0.40524015	0.9142092	0	-5.391736e-16	-5.3999944e-16	1.1535536	25
0	0.3826823	0.92387897	0	-5.3917363e-16	-5.3999944e-16	1.1780972	25
0	0.35989386	0.9329921	0	-5.391736e-16	-5.399994e-16	1.2026409	25
0	0.3368887	0.94154334	0	-5.3917363e-16	-5.399994e-16	1.2271847	25
0	0.3136806	0.9495274	0	-5.391737e-16	-5.399994e-16	1.2517283	25
0	0.29028362	0.95693946	0	-5.3917363e-16	-5.3999933e-16	1.276272	25
0	0.26671174	0.96377516	0	-5.3917363e-16	-5.399994e-16	1.3008157	25
0	0.2429792	0.9700303	0	-5.391737e-16	-5.3999944e-16	1.3253593	25
0	0.21910034	0.97570115	0	-5.391736e-16	-5.3999933e-16	1.3499031	25
0	0.19508952	0.98078424	0	-5.3917363e-16	-5.3999933e-16	1.3744467	25
0	0.17096117	0.9852766	0	-5.391737e-16	-5.3999933e-16	1.3989905	25
0	0.14672986	0.9891753	0	-5.3917363e-16	-5.399993e-16	1.4235342	25
0	0.12241014	0.9924783	0	-5.3917374e-16	-5.3999933e-16	1.4480779	25
0	0.098016694	0.9951836	0	-5.391737e-16	-5.399993e-16	1.4726216	25
0	0.07356423	0.9972891	0	-5.391737e-16	-5.399993e-16	1.4971652	25
0	0.04906745	0.9987942	0	-5.3917374e-16	-5.399993e-16	1.521709	25
0	0.024541117	0.99969745	0	-5.391737e-16	-5.399993e-16	1.5462526	25
0	-2.6387474e-11	0.9999986	0	-5.391737e-16	-5.399993e-16	1.5707964	25
0	0.9997996	-3.8494666e-10	0	-3.293171e-17	-3.3743235e-17	0	1.5625
0	0.99949914	0.024517257	0	-3.2931705e-17	-3.3743248e-17	0.024543693	1.5625
0	0.9985981	0.04901993	0	-3.2931685e-17	-3.374327e-17	0.049087387	1.5625
0	0.99709654	0.07349374	0	-3.2931635e-17	-3.3743295e-17	0.07363108	1.5625
0	0.9949958	0.097923845	0	-3.2931582e-17	-3.374334e-17	0.09817477	1.5625
0	0.99229676	0.122296184	0	-3.2931516e-17	-3.3743407e-17	0.12271846	1.5625
0	0.9890012	0.14659552	0	-3.2931433e-17	-3.3743477e-17	0.14726216	1.5625
0	0.9851107	0.17080833	0	-3.2931337e-17	-3.374356e-17	0.17180584	1.5625
0	0.9806274	0.19491957	0	-3.2931225e-17	-3.3743645e-17	0.19634955	1.5625
0	0.9755543	0.2189153	0	-3.2931106e-17	-3.3743754e-17	0.22089323	1.5625
0	0.9698939	0.24278098	0	-3.2930983e-17	-3.374387e-17	0.24543692	1.5625
0	0.96364933	0.2665021	0	-3.293084e-17	-3.3743983e-17	0.2699806	1.5625
0	0.9568247	0.29006445	0	-3.29307e-17	-3.3744102e-17	0.2945243	1.5625
0	0.9494234	0.31345415	0	-3.293055e-17	-3.3744234e-17	0.319068	1.5625
0	0.94145	0.33665723	0	-3.2930394e-17	-3.3744367e-17	0.3436117	1.5625
0	0.9329089	0.35965952	0	-3.2930236e-17	-3.3744496e-17	0.3681554	1.5625
0	0.92380524	0.382447	0	-3.2930083e-17	-3.3744635e-17	0.3926991	1.5625
0	0.9141445	0.40500593	0	-3.2929925e-17	-3.3744767e-17	0.41724277	1.5625
0	0.9039319	0.4273226	0	-3.2929762e-17	-3.37449e-17	0.44178647	1.5625
0	0.8931738	0.4493835	0	-3.292962e-17	-3.3745028e-17	0.46633017	1.5625
0	0.88187647	0.47117534	0	-3.2929468e-17	-3.374515e-17	0.49087384	1.5625
0	0.8700465	0.4926848	0	-3.2929326e-17	-3.3745263e-17	0.5154175	1.5625
0	0.85769117	0.51389855	0	-3.292919e-17	-3.3745376e-17	0.5399612	1.5625
0	0.8448177	0.5348038	0	-3.2929064e-17	-3.3745478e-17	0.5645049	1.5625
0	0.8314339	0.55538756	0	-3.2928952e-17	-3.3745578e-17	0.5890486	1.5625
0	0.8175479	0.5756374	0	-3.2928843e-17	-3.3745664e-17	0.6135923	1.5625
0	0.8031677	0.59554094	0	-3.2928757e-17	-3.374574e-17	0.638136	1.5625
0	0.78830224	0.6150861	0	-3.2928674e-17	-3.3745803e-17	0.6626797	1.5625
0	0.7729606	0.6342604	0	-3.2928604e-17	-3.3745852e-17	0.6872234	1.5625
0	0.757152	0.6530527	0	-3.292855e-17	-3.37459e-17	0.7117671	1.5625
0	0.74088603	0.67145115	0	-3.2928518e-17	-3.374593e-17	0.7363108	1.5625
0	0.72417265	0.6894446	0	-3.2928495e-17	-3.374595e-17	0.7608545	1.5625
0	0.707022	0.7070221	0	-3.2928485e-17	-3.3745955e-17	0.7853982	1.5625
0	0.6894446	0.72417265	0	-3.29285e-17	-3.3745948e-17	0.8099418	1.5625
0	0.67145115	0.74088603	0	-3.292852e-17	-3.374593e-17	0.83448553	1.5625
0	0.6530527	0.75715196	0	-3.2928555e-17	-3.37459e-17	0.85902923	1.5625
0	0.6342604	0.7729607	0	-3.2928608e-17	-3.374586e-17	0.88357294	1.5625
0	0.6150861	0.78830224	0	-3.2928667e-17	-3.3745803e-17	0.90811664	1.5625
0	0.595541	0.8031677	0	-3.2928753e-17	-3.3745736e-17	0.93266034	1.5625
0	0.5756374	0.81754786	0	-3.2928846e-17	-3.374566e-17	0.957204	1.5625
0	0.5553876	0.8314339	0	-3.2928952e-17	-3.3745578e-17	0.9817477	1.5625
0	0.5348039	0.8448177	0	-3.2929068e-17	-3.374548e-17	1.0062914	1.5625
0	0.5138987	0.85769117	0	-3.292919e-17	-3.3745376e-17	1.030835	1.5625
0	0.4926848	0.87004656	0	-3.292932e-17	-3.374526e-17	1.0553788	1.5625
0	0.47117534	0.88187647	0	-3.2929468e-17	-3.3745147e-17	1.0799224	1.5625
0	0.44938347	0.8931738	0	-3.2929614e-17	-3.3745025e-17	1.1044662	1.5625
0	0.4273226	0.9039319	0	-3.2929766e-17	-3.3744896e-17	1.1290098	1.5625
0	0.40500593	0.9141444	0	-3.292992e-17	-3.374476e-17	1.1535536	1.5625
0	0.38244697	0.92380536	0	-3.293008e-17	-3.374463e-17	1.1780972	1.5625
0	0.35965952	0.9329089	0	-3.2930236e-17	-3.37445e-17	1.2026409	1.5625
0	0.33665723	0.94145	0	-3.2930394e-17	-3.3744367e-17	1.2271847	1.5625
0	0.3134545	0.9494233	0	-3.2930547e-17	-3.3744234e-17	1.2517283	1.5625
0	0.2900644	0.95682466	0	-3.2930695e-17	-3.3744102e-17	1.276272	1.5625
0	0.26650193	0.96364945	0	-3.293084e-17	-3.3743986e-17	1.3008157	1.5625
0	0.24278063	0.9698939	0	-3.2930983e-17	-3.3743867e-17	1.3253593	1.5625
0	0.21891506	0.9755543	0	-3.293111e-17	-3.3743758e-17	1.3499031	1.5625
0	0.1949195	0.9806274	0	-3.293123e-17	-3.3743655e-17	1.3744467	1.5625
0	0.17080827	0.9851106	0	-3.2931334e-17	-3.3743556e-17	1.3989905	1.5625
0	0.14659548	0.9890011	0	-3.293143e-17	-3.3743477e-17	1.4235342	1.5625
0	0.12229616	0.99229676	0	-3.2931516e-17	-3.3743404e-17	1.4480779	1.5625
0	0.0979238	0.9949958	0	-3.2931586e-17	-3.374334e-17	1.4726216	1.5625
0	0.07349357	0.9970964	0	-3.293164e-17	-3.3743295e-17	1.4971652	1.5625
0	0.049019918	0.998598	0	-3.2931675e-17	-3.374326e-17	1.521709	1.5625
0	0.024517214	0.9994991	0	-3.2931698e-17	-3.3743238e-17	1.5462526	1.5625
0	-5.201609e-10	0.9997996	0	-3.2931705e-17	-3.3743232e-17	1.5707964	1.5625
0	0.99867105	-2.0792639e-09	0	-7.632189e-18	-8.426287e-18	0	0.390625
0	0.9983762	0.024310766	0	-7.632168e-18	-8.426296e-18	0.024543693	0.390625
0	0.9974922	0.048606172	0	-7.632105e-18	-8.426325e-18	0.049087387	0.390625
0	0.99601877	0.07287927	0	-7.632002e-18	-8.426372e-18	0.07363108	0.390625
0	0.9939567	0.09711458	0	-7.631859e-18	-8.426442e-18	0.09817477	0.390625
0	0.99130577	0.12130319	0	-7.631679e-18	-8.426529e-18	0.12271846	0.390625
0	0.9880668	0.14543088	0	-7.631463e-18	-8.426631e-18	0.14726216	0.390625
0	0.9842401	0.16948625	0	-7.631212e-18	-8.426747e-18	0.17180584	0.390625
0	0.97982675	0.19345549	0	-7.63093e-18	-8.426876e-18	0.19634955	0.390625
0	0.9748276	0.217326	0	-7.630622e-18	-8.427019e-18	0.22089323	0.390625
0	0.96924406	0.2410848	0	-7.6302895e-18	-8.427171e-18	0.24543692	0.390625
0	0.96307606	0.2647227	0	-7.629936e-18	-8.427331e-18	0.2699806	0.390625
0	0.95633	0.28821266	0	-7.629566e-18	-8.427497e-18	0.2945243	0.390625
0	0.9490037	0.3115542	0	-7.629184e-18	-8.427667e-18	0.319068	0.390625
0	0.94110155	0.33472732	0	-7.628793e-18	-8.427836e-18	0.3436117	0.390625
0	0.9326257	0.3577203	0	-7.628398e-18	-8.428005e-18	0.3681554	0.390625
0	0.92358184	0.38051337	0	-7.628004e-18	-8.428173e-18	0.3926991	0.390625
0	0.9139719	0.40309682	0	-7.627612e-18	-8.428333e-18	0.41724277	0.390625
0	0.9038019	0.42545334	0	-7.627229e-18	-8.428487e-18	0.44178647	0.390625
0	0.89307725	0.4475667	0	-7.626855e-18	-8.428635e-18	0.46633017	0.390625
0	0.88180304	0.46942332	0	-7.626498e-18	-8.428772e-18	0.49087384	0.390625
0	0.86998284	0.491013	0	-7.626155e-18	-8.428894e-18	0.5154175	0.390625
0	0.8576303	0.51231045	0	-7.625835e-18	-8.429013e-18	0.5399612	0.390625
0	0.84474784	0.5333077	0	-7.62554e-18	-8.4291185e-18	0.5645049	0.390625
0	0.8313435	0.55399054	0	-7.625268e-18	-8.429211e-18	0.5890486	0.390625
0	0.8174265	0.5743439	0	-7.625023e-18	-8.429294e-18	0.6135923	0.390625
0	0.8030054	0.59435296	0	-7.624808e-18	-8.429363e-18	0.638136	0.390625
0	0.78809035	0.61400336	0	-7.624623e-18	-8.4294204e-18	0.6626797	0.390625
0	0.7726902	0.6332829	0	-7.624473e-18	-8.4294676e-18	0.6872234	0.390625
0	0.7568145	0.6521791	0	-7.624352e-18	-8.429504e-18	0.7117671	0.390625
0	0.7404739	0.6706787	0	-7.624267e-18	-8.42953e-18	0.7363108	0.390625
0	0.7236787	0.6887692	0	-7.624215e-18	-8.4295395e-18	0.7608545	0.390625
0	0.7064406	0.7064401	0	-7.6241965e-18	-8.429548e-18	0.7853982	0.390625
0	0.6887702	0.72367847	0	-7.624214e-18	-8.429543e-18	0.8099418	0.390625
0	0.6706791	0.74047357	0	-7.624267e-18	-8.429529e-18	0.83448553	0.390625
0	0.6521797	0.7568139	0	-7.624352e-18	-8.429502e-18	0.85902923	0.390625
0	0.63328254	0.7726899	0	-7.624471e-18	-8.4294634e-18	0.88357294	0.390625
0	0.6140035	0.78809065	0	-7.624623e-18	-8.429424e-18	0.90811664	0.390625
0	0.5943531	0.8030054	0	-7.624808e-18	-8.429364e-18	0.93266034	0.390625
0	0.5743441	0.8174265	0	-7.625022e-18	-8.429293e-18	0.957204	0.390625
0	0.55399203	0.8313431	0	-7.625267e-18	-8.4292145e-18	0.9817477	0.390625
0	0.5333094	0.84474725	0	-7.625537e-18	-8.429121e-18	1.0062914	0.390625
0	0.5123095	0.857631	0	-7.625835e-18	-8.429014e-18	1.030835	0.390625
0	0.4910102	0.869985	0	-7.626155e-18	-8.428899e-18	1.0553788	0.390625
0	0.46942478	0.8818023	0	-7.626496e-18	-8.428771e-18	1.0799224	0.390625
0	0.44756696	0.8930771	0	-7.626855e-18	-8.4286354e-18	1.1044662	0.390625
0	0.4254528	0.9038023	0	-7.627227e-18	-8.428489e-18	1.1290098	0.390625
0	0.40309736	0.9139718	0	-7.627611e-18	-8.428333e-18	1.1535536	0.390625
0	0.38051343	0.92358184	0	-7.628004e-18	-8.428173e-18	1.1780972	0.390625
0	0.3577171	0.93262696	0	-7.6283986e-18	-8.428007e-18	1.2026409	0.390625
0	0.3347263	0.9411019	0	-7.628794e-18	-8.427837e-18	1.2271847	0.390625
0	0.3115544	0.9490035	0	-7.629185e-18	-8.427666e-18	1.2517283	0.390625
0	0.28821588	0.95632875	0	-7.6295666e-18	-8.427495e-18	1.276272	0.390625
0	0.2647178	0.9630776	0	-7.629937e-18	-8.427331e-18	1.3008157	0.390625
0	0.24108398	0.96924424	0	-7.6302895e-18	-8.4271705e-18	1.3253593	0.390625
0	0.21732482	0.9748278	0	-7.630622e-18	-8.4270175e-18	1.3499031	0.390625
0	0.1934578	0.97982603	0	-7.630931e-18	-8.426874e-18	1.3744467	0.390625
0	0.16948542	0.98424	0	-7.631212e-18	-8.4267445e-18	1.3989905	0.390625
0	0.14543013	0.9880667	0	-7.631463e-18	-8.426628e-18	1.4235342	0.390625
0	0.12130292	0.9913056	0	-7.63168e-18	-8.426525e-18	1.4480779	0.390625
0	0.097114146	0.9939566	0	-7.631861e-18	-8.426441e-18	1.4726216	0.390625
0	0.07287964	0.9960185	0	-7.632004e-18	-8.4263714e-18	1.4971652	0.390625
0	0.04860723	0.99749184	0	-7.632108e-18	-8.4263235e-18	1.521709	0.390625
0	0.024310201	0.998376	0	-7.6321705e-18	-8.4262945e-18	1.5462526	0.390625
0	-1.9537079e-09	0.9986708	0	-7.632191e-18	-8.426285e-18	1.5707964	0.390625
0	0.9962641	-4.866333e-09	0	-1.3181667e-18	-2.1014947e-18	0	0.09765625
0	0.9959883	0.023420103	0	-1.3181388e-18	-2.1014923e-18	0.024543693	0.09765625
0	0.9951644	0.04679738	0	-1.318056e-18	-2.10149e-18	0.049087387	0.09765625
0	0.99378985	0.07017935	0	-1.3179185e-18	-2.1014858e-18	0.07363108	0.09765625
0	0.99186146	0.09357222	0	-1.317729e-18	-2.1014794e-18	0.09817477	0.09765625
0	0.9893757	0.11697057	0	-1.3174897e-18	-2.1014724e-18	0.12271846	0.09765625
0	0.9863321	0.14034186	0	-1.3172029e-18	-2.1014627e-18	0.14726216	0.09765625
0	0.9827176	0.16374503	0	-1.3168727e-18	-2.101452e-18	0.17180584	0.09765625
0	0.9785359	0.18711157	0	-1.3165036e-18	-2.101438e-18	0.19634955	0.09765625
0	0.9737717	0.21048914	0	-1.3161003e-18	-2.1014222e-18	0.22089323	0.09765625
0	0.9684232	0.23384452	0	-1.3156683e-18	-2.1014025e-18	0.24543692	0.09765625
0	0.9624795	0.25718382	0	-1.3152135e-18	-2.1013783e-18	0.2699806	0.09765625
0	0.955928	0.28051394	0	-1.3147422e-18	-2.1013485e-18	0.2945243	0.09765625
0	0.9487915	0.3037245	0	-1.3142611e-18	-2.1013111e-18	0.319068	0.09765625
0	0.94100904	0.32697436	0	-1.3137774e-18	-2.1012666e-18	0.3436117	0.09765625
0	0.9326523	0.35002103	0	-1.3132968e-18	-2.101209e-18	0.3681554	0.09765625
0	0.923651	0.37303442	0	-1.3128265e-18	-2.1011407e-18	0.3926991	0.09765625
0	0.9140277	0.3959243	0	-1.3123734e-18	-2.1010596e-18	0.41724277	0.09765625
0	0.90379983	0.41863042	0	-1.3119416e-18	-2.1009647e-18	0.44178647	0.09765625
0	0.8929748	0.441122	0	-1.311537e-18	-2.1008537e-18	0.46633017	0.09765625
0	0.8815591	0.4633805	0	-1.3111625e-18	-2.10073e-18	0.49087384	0.09765625
0	0.8695738	0.48535383	0	-1.3108212e-18	-2.1005892e-18	0.5154175	0.09765625
0	0.85699564	0.50708836	0	-1.3105148e-18	-2.1004417e-18	0.5399612	0.09765625
0	0.8438686	0.52849984	0	-1.310245e-18	-2.1002868e-18	0.5645049	0.09765625
0	0.830214	0.5495599	0	-1.3100103e-18	-2.1001295e-18	0.5890486	0.09765625
0	0.8160489	0.5702483	0	-1.3098094e-18	-2.0999731e-18	0.6135923	0.09765625
0	0.80138755	0.59055436	0	-1.3096419e-18	-2.0998265e-18	0.638136	0.09765625
0	0.7862445	0.610464	0	-1.3095051e-18	-2.0996925e-18	0.6626797	0.09765625
0	0.7706582	0.6299346	0	-1.3093968e-18	-2.0995732e-18	0.6872234	0.09765625
0	0.7546092	0.64900243	0	-1.3093152e-18	-2.099477e-18	0.7117671	0.09765625
0	0.7380809	0.6676914	0	-1.3092583e-18	-2.0994107e-18	0.7363108	0.09765625
0	0.72113365	0.68593	0	-1.3092245e-18	-2.0993674e-18	0.7608545	0.09765625
0	0.7037527	0.7037474	0	-1.3092132e-18	-2.0993614e-18	0.7853982	0.09765625
0	0.6859357	0.72112864	0	-1.3092238e-18	-2.0993674e-18	0.8099418	0.09765625
0	0.6677023	0.73807144	0	-1.3092574e-18	-2.0994113e-18	0.83448553	0.09765625
0	0.64902496	0.75459117	0	-1.3093135e-18	-2.099479e-18	0.85902923	0.09765625
0	0.62996066	0.77063847	0	-1.3093951e-18	-2.0995757e-18	0.88357294	0.09765625
0	0.61045736	0.78624934	0	-1.3095028e-18	-2.0996917e-18	0.90811664	0.09765625
0	0.590557	0.8013862	0	-1.3096396e-18	-2.0998276e-18	0.93266034	0.09765625
0	0.5702619	0.8160406	0	-1.3098072e-18	-2.0999756e-18	0.957204	0.09765625
0	0.5495577	0.83021593	0	-1.3100074e-18	-2.10013e-18	0.9817477	0.09765625
0	0.5284711	0.8438857	0	-1.3102424e-18	-2.100285e-18	1.0062914	0.09765625
0	0.5070926	0.8569941	0	-1.3105125e-18	-2.1004436e-18	1.030835	0.09765625
0	0.48537305	0.86956525	0	-1.3108191e-18	-2.1005935e-18	1.0553788	0.09765625
0	0.46337864	0.8815608	0	-1.3111601e-18	-2.1007315e-18	1.0799224	0.09765625
0	0.44111836	0.8929772	0	-1.3115349e-18	-2.1008545e-18	1.1044662	0.09765625
0	0.4186556	0.90379053	0	-1.31194e-18	-2.1009697e-18	1.1290098	0.09765625
0	0.3959913	0.913999	0	-1.3123718e-18	-2.1010615e-18	1.1535536	0.09765625
0	0.3731374	0.9236109	0	-1.312826e-18	-2.1011453e-18	1.1780972	0.09765625
0	0.35009393	0.9326251	0	-1.3132962e-18	-2.1012108e-18	1.2026409	0.09765625
0	0.32697156	0.94101065	0	-1.3137768e-18	-2.1012673e-18	1.2271847	0.09765625
0	0.30371034	0.9487962	0	-1.3142616e-18	-2.1013111e-18	1.2517283	0.09765625
0	0.28050265	0.95593125	0	-1.314743e-18	-2.1013485e-18	1.276272	0.09765625
0	0.25717556	0.9624816	0	-1.3152148e-18	-2.101378e-18	1.3008157	0.09765625
0	0.23384011	0.968424	0	-1.3156702e-18	-2.1014017e-18	1.3253593	0.09765625
0	0.2104858	0.9737722	0	-1.3161026e-18	-2.1014213e-18	1.3499031	0.09765625
0	0.1871037	0.9785371	0	-1.3165067e-18	-2.101437e-18	1.3744467	0.09765625
0	0.1637264	0.9827201	0	-1.316876e-18	-2.1014505e-18	1.3989905	0.09765625
0	0.14035018	0.98633045	0	-1.3172064e-18	-2.1014619e-18	1.4235342	0.09765625
0	0.11695291	0.9893774	0	-1.3174936e-18	-2.101471e-18	1.4480779	0.09765625
0	0.09355677	0.9918624	0	-1.3177335e-18	-2.1014784e-18	1.4726216	0.09765625
0	0.07019579	0.9937882	0	-1.3179231e-18	-2.1014844e-18	1.4971652	0.09765625
0	0.046795666	0.99516386	0	-1.3180605e-18	-2.1014887e-18	1.521709	0.09765625
0	0.02341829	0.9959878	0	-1.3181434e-18	-2.101491e-18	1.5462526	0.09765625
0	-5.621049e-09	0.99626344	0	-1.3181712e-18	-2.1014933e-18	1.5707964	0.09765625
0	0.99460775	-7.0421784e-09	0	2.5676012e-19	-5.245001e-19	0	0.024414062
0	0.9943769	0.021202803	0	2.5678227e-19	-5.2449496e-19	0.024543693	0.024414062
0	0.993701	0.042080764	0	2.5684943e-19	-5.2447966e-19	0.049087387	0.024414062
0	0.9925679	0.06311306	0	2.5696074e-19	-5.244547e-19	0.07363108	0.024414062
0	0.9909701	0.084256455	0	2.571144e-19	-5.244206e-19	0.09817477	0.024414062
0	0.98889613	0.105524994	0	2.573093e-19	-5.243783e-19	0.12271846	0.024414062
0	0.9863274	0.12697305	0	2.5754294e-19	-5.2432885e-19	0.14726216	0.024414062
0	0.98325646	0.14854456	0	2.5781214e-19	-5.242726e-19	0.17180584	0.024414062
0	0.9796475	0.17036508	0	2.5811365e-19	-5.242117e-19	0.19634955	0.024414062
0	0.9754773	0.1924338	0	2.5844294e-19	-5.2414677e-19	0.22089323	0.024414062
0	0.97069556	0.21485804	0	2.587945e-19	-5.240802e-19	0.24543692	0.024414062
0	0.9652698	0.23762655	0	2.5916305e-19	-5.2401194e-19	0.2699806	0.024414062
0	0.95911384	0.26091176	0	2.595408e-19	-5.2394427e-19	0.2945243	0.024414062
0	0.9521971	0.28463477	0	2.5992057e-19	-5.2387525e-19	0.319068	0.024414062
0	0.9444752	0.3087676	0	2.6029246e-19	-5.2380297e-19	0.3436117	0.024414062
0	0.9358603	0.3333984	0	2.6064748e-19	-5.237258e-19	0.3681554	0.024414062
0	0.9262697	0.35855958	0	2.609754e-19	-5.236399e-19	0.3926991	0.024414062
0	0.915701	0.38407353	0	2.6126562e-19	-5.235391e-19	0.41724277	0.024414062
0	0.90412694	0.40985283	0	2.6150997e-19	-5.234181e-19	0.44178647	0.024414062
0	0.8921427	0.43460846	0	2.6170203e-19	-5.2327714e-19	0.46633017	0.024414062
0	0.87924117	0.45937908	0	2.618382e-19	-5.2310985e-19	0.49087384	0.024414062
0	0.8653577	0.48424262	0	2.6191896e-19	-5.22924e-19	0.5154175	0.024414062
0	0.8507843	0.5086393	0	2.619488e-19	-5.2272143e-19	0.5399612	0.024414062
0	0.8361132	0.5316978	0	2.6193548e-19	-5.2251867e-19	0.5645049	0.024414062
0	0.821287	0.5536735	0	2.6188846e-19	-5.223233e-19	0.5890486	0.024414062
0	0.8063622	0.5746146	0	2.6181835e-19	-5.2214267e-19	0.6135923	0.024414062
0	0.7916473	0.59423476	0	2.6173512e-19	-5.219872e-19	0.638136	0.024414062
0	0.7766134	0.6133323	0	2.616486e-19	-5.2184984e-19	0.6626797	0.024414062
0	0.76134187	0.63184625	0	2.6156625e-19	-5.21735e-19	0.6872234	0.024414062
0	0.74618953	0.6494136	0	2.614954e-19	-5.2164884e-19	0.7117671	0.024414062
0	0.7308989	0.6663954	0	2.614411e-19	-5.2158737e-19	0.7363108	0.024414062
0	0.71543264	0.6828665	0	2.6140748e-19	-5.215503e-19	0.7608545	0.024414062
0	0.69934016	0.6993193	0	2.6139587e-19	-5.2154384e-19	0.7853982	0.024414062
0	0.68290657	0.7153943	0	2.6140792e-19	-5.2155035e-19	0.8099418	0.024414062
0	0.66610444	0.73116773	0	2.614425e-19	-5.215894e-19	0.83448553	0.024414062
0	0.6494451	0.7461624	0	2.6149715e-19	-5.216489e-19	0.85902923	0.024414062
0	0.63188016	0.7613141	0	2.6156855e-19	-5.2173507e-19	0.88357294	0.024414062
0	0.6136292	0.77637386	0	2.6165116e-19	-5.218466e-19	0.90811664	0.024414062
0	0.5945756	0.79138476	0	2.617383e-19	-5.2198307e-19	0.93266034	0.024414062
0	0.5742873	0.8066048	0	2.6182203e-19	-5.22148e-19	0.957204	0.024414062
0	0.55370045	0.8212697	0	2.6189236e-19	-5.223236e-19	0.9817477	0.024414062
0	0.5317036	0.83611095	0	2.619393e-19	-5.2251945e-19	1.0062914	0.024414062
0	0.5086343	0.85078883	0	2.619528e-19	-5.2272226e-19	1.030835	0.024414062
0	0.48425144	0.8653541	0	2.6192297e-19	-5.2292456e-19	1.0553788	0.024414062
0	0.45938793	0.87923765	0	2.6184195e-19	-5.231104e-19	1.0799224	0.024414062
0	0.4345915	0.8921526	0	2.617052e-19	-5.232777e-19	1.1044662	0.024414062
0	0.40981093	0.9041477	0	2.615129e-19	-5.2341854e-19	1.1290098	0.024414062
0	0.38409188	0.9156939	0	2.6126776e-19	-5.2353967e-19	1.1535536	0.024414062
0	0.35847345	0.9263048	0	2.609765e-19	-5.2363966e-19	1.1780972	0.024414062
0	0.3333544	0.9358769	0	2.6064807e-19	-5.237257e-19	1.2026409	0.024414062
0	0.30871016	0.9444948	0	2.602925e-19	-5.2380256e-19	1.2271847	0.024414062
0	0.28457624	0.95221525	0	2.5991972e-19	-5.2387463e-19	1.2517283	0.024414062
0	0.26090345	0.9591163	0	2.5953965e-19	-5.2394406e-19	1.276272	0.024414062
0	0.237541	0.96529114	0	2.5916093e-19	-5.240108e-19	1.3008157	0.024414062
0	0.21481274	0.9707056	0	2.5879183e-19	-5.2407946e-19	1.3253593	0.024414062
0	0.19240348	0.97548306	0	2.5843945e-19	-5.2414625e-19	1.3499031	0.024414062
0	0.17033614	0.9796522	0	2.5810974e-19	-5.2421103e-19	1.3744467	0.024414062
0	0.14851077	0.98326117	0	2.5780795e-19	-5.242719e-19	1.3989905	0.024414062
0	0.12694652	0.9863302	0	2.575382e-19	-5.243282e-19	1.4235342	0.024414062
0	0.105515465	0.98889637	0	2.573044e-19	-5.243778e-19	1.4480779	0.024414062
0	0.08424593	0.99097025	0	2.5710932e-19	-5.2442015e-19	1.4726216	0.024414062
0	0.06309656	0.99256825	0	2.5695528e-19	-5.244541e-19	1.4971652	0.024414062
0	0.042074338	0.99370044	0	2.5684405e-19	-5.244792e-19	1.521709	0.024414062
0	0.021104459	0.99437815	0	2.567768e-19	-5.244943e-19	1.5462526	0.024414062
0	-6.4803494e-08	0.99460685	0	2.5675425e-19	-5.2449967e-19	1.5707964	0.024414062
0	0.9940271	-9.589173e-09	0	6.5002267e-19	-1.3104848e-19	0	0.0061035156
0	0.9938968	0.015805086	0	6.500376e-19	-1.3104296e-19	0.024543693	0.0061035156
0	0.99352235	0.031199481	0	6.500819e-19	-1.3102603e-19	0.049087387	0.0061035156
0	0.99290544	0.04653105	0	6.501554e-19	-1.3099721e-19	0.07363108	0.0061035156
0	0.9920219	0.062216043	0	6.5025743e-19	-1.3095833e-19	0.09817477	0.0061035156
0	0.99088657	0.07784791	0	6.5038813e-19	-1.3090835e-19	0.12271846	0.0061035156
0	0.98946404	0.0938077	0	6.505466e-19	-1.3084966e-19	0.14726216	0.0061035156
0	0.98772806	0.11016877	0	6.507318e-19	-1.3078401e-19	0.17180584	0.0061035156
0	0.98567253	0.12680899	0	6.509427e-19	-1.3071171e-19	0.19634955	0.0061035156
0	0.98325306	0.14391415	0	6.511776e-19	-1.3063542e-19	0.22089323	0.0061035156
0	0.9804228	0.16159165	0	6.514351e-19	-1.3055772e-19	0.24543692	0.0061035156
0	0.9771204	0.17997634	0	6.5171265e-19	-1.3048163e-19	0.2699806	0.0061035156
0	0.97311485	0.19993792	0	6.520078e-19	-1.3041893e-19	0.2945243	0.0061035156
0	0.9684854	0.22067243	0	6.5231567e-19	-1.3036267e-19	0.319068	0.0061035156
0	0.9627761	0.2436877	0	6.5263196e-19	-1.3033193e-19	0.3436117	0.0061035156
0	0.9560055	0.268256	0	6.5294856e-19	-1.3031857e-19	0.3681554	0.0061035156
0	0.94697666	0.297601	0	6.5325503e-19	-1.3035666e-19	0.3926991	0.0061035156
0	0.9339932	0.3348221	0	6.535322e-19	-1.3045816e-19	0.41724277	0.0061035156
0	0.9117949	0.389143	0	6.5374203e-19	-1.30601e-19	0.44178647	0.0061035156
0	0.88356507	0.44704345	0	6.538008e-19	-1.3054629e-19	0.46633017	0.0061035156
0	0.850303	0.5047552	0	6.5368444e-19	-1.3023281e-19	0.49087384	0.0061035156
0	0.82693994	0.5405107	0	6.5348964e-19	-1.2998052e-19	0.5154175	0.0061035156
0	0.81002575	0.56449485	0	6.532682e-19	-1.2985718e-19	0.5399612	0.0061035156
0	0.79564506	0.58381766	0	6.530412e-19	-1.2979836e-19	0.5645049	0.0061035156
0	0.78369474	0.5992118	0	6.5282164e-19	-1.2979544e-19	0.5890486	0.0061035156
0	0.7716703	0.6141404	0	6.526157e-19	-1.2979683e-19	0.6135923	0.0061035156
0	0.76041657	0.6276443	0	6.5242987e-19	-1.2981352e-19	0.638136	0.0061035156
0	0.7496167	0.6402068	0	6.5226784e-19	-1.298364e-19	0.6626797	0.0061035156
0	0.7384429	0.6528186	0	6.5213167e-19	-1.2985416e-19	0.6872234	0.0061035156
0	0.7288239	0.66338205	0	6.5202465e-19	-1.2988146e-19	0.7117671	0.0061035156
0	0.71873355	0.6741815	0	6.519472e-19	-1.298978e-19	0.7363108	0.0061035156
0	0.7088408	0.684503	0	6.519004e-19	-1.29907e-19	0.7608545	0.0061035156
0	0.69678974	0.69675887	0	6.5188434e-19	-1.2990952e-19	0.7853982	0.0061035156
0	0.684655	0.7086934	0	6.5190094e-19	-1.2990672e-19	0.8099418	0.0061035156
0	0.67415935	0.71875495	0	6.519481e-19	-1.2989795e-19	0.83448553	0.0061035156
0	0.66332513	0.728877	0	6.5202605e-19	-1.2988186e-19	0.85902923	0.0061035156
0	0.65216094	0.73903584	0	6.5213374e-19	-1.2985958e-19	0.88357294	0.0061035156
0	0.64034116	0.74950033	0	6.522699e-19	-1.298352e-19	0.90811664	0.0061035156
0	0.6277673	0.7603134	0	6.524325e-19	-1.2981226e-19	0.93266034	0.0061035156
0	0.6151999	0.77079934	0	6.526182e-19	-1.2978338e-19	0.957204	0.0061035156
0	0.60047764	0.7826904	0	6.5282443e-19	-1.2977807e-19	0.9817477	0.0061035156
0	0.5827978	0.79642534	0	6.5304565e-19	-1.2981333e-19	1.0062914	0.0061035156
0	0.56458044	0.8099654	0	6.5327245e-19	-1.2985612e-19	1.030835	0.0061035156
0	0.53858125	0.8282614	0	6.534951e-19	-1.3000674e-19	1.0553788	0.0061035156
0	0.5045574	0.85042834	0	6.536891e-19	-1.3023514e-19	1.0799224	0.0061035156
0	0.44661328	0.8837952	0	6.5380506e-19	-1.3054788e-19	1.1044662	0.0061035156
0	0.38942662	0.9116695	0	6.5374493e-19	-1.3060206e-19	1.1290098	0.0061035156
0	0.3344879	0.93411845	0	6.5353307e-19	-1.3045542e-19	1.1535536	0.0061035156
0	0.29746696	0.94702077	0	6.5325467e-19	-1.3035526e-19	1.1780972	0.0061035156
0	0.2682825	0.955998	0	6.5294753e-19	-1.3031888e-19	1.2026409	0.0061035156
0	0.24351129	0.96282226	0	6.5263e-19	-1.3032984e-19	1.2271847	0.0061035156
0	0.21986246	0.9686755	0	6.5231277e-19	-1.3035298e-19	1.2517283	0.0061035156
0	0.19933264	0.9732428	0	6.5200423e-19	-1.304119e-19	1.276272	0.0061035156
0	0.18017875	0.97708136	0	6.5170903e-19	-1.3048377e-19	1.3008157	0.0061035156
0	0.16146044	0.9804445	0	6.5143094e-19	-1.3055626e-19	1.3253593	0.0061035156
0	0.14380322	0.98326916	0	6.511732e-19	-1.3063427e-19	1.3499031	0.0061035156
0	0.12672462	0.985683	0	6.5093763e-19	-1.3071089e-19	1.3744467	0.0061035156
0	0.11006149	0.9877396	0	6.5072655e-19	-1.307831e-19	1.3989905	0.0061035156
0	0.09373003	0.9894708	0	6.5054116e-19	-1.3084905e-19	1.4235342	0.0061035156
0	0.077779666	0.9908912	0	6.503826e-19	-1.3090787e-19	1.4480779	0.0061035156
0	0.062146872	0.99202543	0	6.502517e-19	-1.3095792e-19	1.4726216	0.0061035156
0	0.04661616	0.99290055	0	6.5014923e-19	-1.3099739e-19	1.4971652	0.0061035156
0	0.031093279	0.99352485	0	6.5007566e-19	-1.3102565e-19	1.521709	0.0061035156
0	0.016785756	0.99387914	0	6.5003166e-19	-1.3104384e-19	1.5462526	0.0061035156
0	-1.0113474e-08	0.99402595	0	6.5001657e-19	-1.3104834e-19	1.5707964	0.0061035156
0	0.99386775	-8.386042e-09	0	7.4830124e-19	-3.2756872e-20	0	0.0015258789
0	0.9938077	0.010651923	0	7.483087e-19	-3.275364e-20	0.024543693	0.0015258789
0	0.99373454	0.01595085	0	7.4832864e-19	-3.273883e-20	0.049087387	0.0015258789
0	0.99358624	0.023236925	0	7.48363e-19	-3.2715203e-20	0.07363108	0.0015258789
0	0.9933486	0.031578414	0	7.4841156e-19	-3.268413e-20	0.09817477	0.0015258789
0	0.9931013	0.03838798	0	7.4847293e-19	-3.2640327e-20	0.12271846	0.0015258789
0	0.9927798	0.045743093	0	7.4854815e-19	-3.2588073e-20	0.14726216	0.0015258789
0	0.9923793	0.053502224	0	7.486373e-19	-3.2527756e-20	0.17180584	0.0015258789
0	0.99193466	0.060971987	0	7.487397e-19	-3.245702e-20	0.19634955	0.0015258789
0	0.9913125	0.070091605	0	7.4885576e-19	-3.238493e-20	0.22089323	0.0015258789
0	0.9907959	0.07684543	0	7.489847e-19	-3.2292385e-20	0.24543692	0.0015258789
0	0.9901268	0.08479045	0	7.4912697e-19	-3.2196816e-20	0.2699806	0.0015258789
0	0.9894119	0.09252213	0	7.492824e-19	-3.2091044e-20	0.2945243	0.0015258789
0	0.9885446	0.1011067	0	7.4945076e-19	-3.1982282e-20	0.319068	0.0015258789
0	0.98760676	0.10962547	0	7.4963196e-19	-3.1864978e-20	0.3436117	0.0015258789
0	0.98661107	0.11799007	0	7.498257e-19	-3.1738348e-20	0.3681554	0.0015258789
0	0.985461	0.12695809	0	7.500319e-19	-3.1608723e-20	0.3926991	0.0015258789