# t (s)	mx ()	my ()	mz ()	E_total (J)	E_Zeeman (J)	Angle (rad)	Field (T)
0	1	2.5558095e-12	0	-2.5863215e-15	-2.5871999e-15	0	100
0	0.9999811	0.0061358814	0	-2.5863217e-15	-2.5872e-15	0.0061359233	100
0	0.99992466	0.012271531	0	-2.5863215e-15	-2.5871999e-15	0.012271847	100
0	0.99983054	0.018406723	0	-2.586321e-15	-2.5871997e-15	0.01840777	100
0	0.99969876	0.024541214	0	-2.5863217e-15	-2.5871999e-15	0.024543693	100
0	0.99952936	0.030674787	0	-2.586322e-15	-2.5872003e-15	0.030679615	100
0	0.9993224	0.036807206	0	-2.5863217e-15	-2.5871999e-15	0.03681554	100
0	0.99907774	0.042938232	0	-2.5863215e-15	-2.5871999e-15	0.04295146	100
0	0.9987954	0.04906765	0	-2.5863213e-15	-2.5871997e-15	0.049087387	100
0	0.9984755	0.055195224	0	-2.5863217e-15	-2.5872e-15	0.05522331	100
0	0.998118	0.0613207	0	-2.5863215e-15	-2.5872e-15	0.06135923	100
0	0.99772304	0.06744389	0	-2.5863217e-15	-2.5872e-15	0.06749515	100
0	0.99729055	0.07356452	0	-2.5863215e-15	-2.5871999e-15	0.07363108	100
0	0.9968202	0.079682395	0	-2.5863217e-15	-2.5871999e-15	0.079767	100
0	0.9963126	0.08579727	0	-2.5863217e-15	-2.5872e-15	0.08590292	100
0	0.9957673	0.091908924	0	-2.5863217e-15	-2.5872e-15	0.09203885	100
0	0.99518466	0.09801708	0	-2.5863217e-15	-2.5872e-15	0.09817477	100
0	0.9945646	0.10412159	0	-2.5863215e-15	-2.5871999e-15	0.10431069	100
0	0.993907	0.11022217	0	-2.5863215e-15	-2.5871997e-15	0.11044662	100
0	0.993212	0.11631857	0	-2.586322e-15	-2.5872e-15	0.11658254	100
0	0.9924795	0.12241062	0	-2.5863221e-15	-2.5872003e-15	0.12271846	100
0	0.99170977	0.12849806	0	-2.586321e-15	-2.5871995e-15	0.12885438	100
0	0.9909026	0.13458066	0	-2.5863215e-15	-2.5871997e-15	0.1349903	100
0	0.9900582	0.14065816	0	-2.5863213e-15	-2.5871997e-15	0.14112623	100
0	0.9891765	0.14673041	0	-2.5863221e-15	-2.5872003e-15	0.14726216	100
0	0.98825765	0.15279713	0	-2.5863217e-15	-2.5872003e-15	0.15339808	100
0	0.98730147	0.15885808	0	-2.5863217e-15	-2.5872e-15	0.159534	100
0	0.98630804	0.16491304	0	-2.586321e-15	-2.5871995e-15	0.16566992	100
0	0.9852776	0.17096183	0	-2.5863213e-15	-2.5871997e-15	0.17180584	100
0	0.9842101	0.17700414	0	-2.5863221e-15	-2.5872003e-15	0.17794177	100
0	0.98310554	0.18303983	0	-2.5863221e-15	-2.5872003e-15	0.1840777	100
0	0.9819639	0.18906857	0	-2.5863213e-15	-2.5871997e-15	0.19021362	100
0	0.9807853	0.19509022	0	-2.5863213e-15	-2.5871995e-15	0.19634955	100
0	0.9795698	0.20110454	0	-2.586321e-15	-2.5871997e-15	0.20248546	100
0	0.9783174	0.20711131	0	-2.5863217e-15	-2.5871999e-15	0.20862138	100
0	0.97702813	0.21311021	0	-2.5863213e-15	-2.5871997e-15	0.21475731	100
0	0.9757021	0.21910115	0	-2.5863217e-15	-2.5872e-15	0.22089323	100
0	0.9743394	0.22508384	0	-2.5863215e-15	-2.5871999e-15	0.22702916	100
0	0.97293985	0.23105802	0	-2.5863217e-15	-2.5872e-15	0.23316509	100
0	0.9715038	0.2370235	0	-2.5863217e-15	-2.5872e-15	0.239301	100
0	0.97003126	0.2429801	0	-2.5863217e-15	-2.5872003e-15	0.24543692	100
0	0.9685221	0.24892752	0	-2.5863217e-15	-2.5872e-15	0.25157285	100
0	0.96697646	0.25486556	0	-2.5863213e-15	-2.5871997e-15	0.25770876	100
0	0.96539456	0.26079404	0	-2.5863215e-15	-2.5871999e-15	0.2638447	100
0	0.963776	0.26671264	0	-2.586321e-15	-2.5871997e-15	0.2699806	100
0	0.96212137	0.27262127	0	-2.5863213e-15	-2.5871997e-15	0.27611655	100
0	0.96043056	0.27851957	0	-2.5863217e-15	-2.5872e-15	0.28225246	100
0	0.9587034	0.28440747	0	-2.5863213e-15	-2.5871997e-15	0.2883884	100
0	0.9569403	0.29028457	0	-2.5863213e-15	-2.5871997e-15	0.2945243	100
0	0.95514125	0.2961508	0	-2.5863213e-15	-2.5871997e-15	0.30066022	100
0	0.953306	0.30200583	0	-2.5863217e-15	-2.5872e-15	0.30679616	100
0	0.95143497	0.30784956	0	-2.586321e-15	-2.5871997e-15	0.31293207	100
0	0.9495282	0.31368163	0	-2.5863217e-15	-2.5872e-15	0.319068	100
0	0.94758564	0.31950194	0	-2.5863215e-15	-2.5871999e-15	0.32520393	100
0	0.9456073	0.32531017	0	-2.5863215e-15	-2.5871997e-15	0.33133984	100
0	0.9435934	0.3311062	0	-2.5863217e-15	-2.5872e-15	0.33747578	100
0	0.9415441	0.33688974	0	-2.5863215e-15	-2.5871999e-15	0.3436117	100
0	0.93945926	0.3426606	0	-2.5863217e-15	-2.5872e-15	0.34974763	100
0	0.93733907	0.34841856	0	-2.5863213e-15	-2.5871999e-15	0.35588354	100
0	0.93518347	0.3541634	0	-2.5863215e-15	-2.5871999e-15	0.36201948	100
0	0.9329928	0.3598949	0	-2.5863217e-15	-2.5872e-15	0.3681554	100
0	0.93076706	0.3656129	0	-2.586322e-15	-2.5872003e-15	0.3742913	100
0	0.92850614	0.37131706	0	-2.5863215e-15	-2.5871999e-15	0.38042724	100
0	0.9262103	0.37700734	0	-2.5863217e-15	-2.5872003e-15	0.38656315	100
0	0.9238796	0.38268334	0	-2.5863213e-15	-2.5872e-15	0.3926991	100
0	0.92151415	0.3883449	0	-2.5863215e-15	-2.5871999e-15	0.398835	100
0	0.9191138	0.39399195	0	-2.5863215e-15	-2.5871997e-15	0.4049709	100
0	0.91667914	0.39962408	0	-2.5863215e-15	-2.5871999e-15	0.41110685	100
0	0.9142098	0.4052412	0	-2.586322e-15	-2.5872003e-15	0.41724277	100
0	0.91170603	0.4108431	0	-2.5863215e-15	-2.5872e-15	0.4233787	100
0	0.90916806	0.41642943	0	-2.5863215e-15	-2.5871999e-15	0.42951462	100
0	0.90659577	0.42200017	0	-2.5863215e-15	-2.5872e-15	0.43565056	100
0	0.9039893	0.427555	0	-2.5863213e-15	-2.5871995e-15	0.44178647	100
0	0.9013488	0.4330937	0	-2.5863213e-15	-2.5871997e-15	0.44792238	100
0	0.8986745	0.43861616	0	-2.5863215e-15	-2.5871999e-15	0.45405832	100
0	0.8959663	0.44412208	0	-2.5863215e-15	-2.5871999e-15	0.46019423	100
0	0.89322436	0.4496112	0	-2.5863215e-15	-2.5872e-15	0.46633017	100
0	0.89044875	0.4550835	0	-2.5863215e-15	-2.5871997e-15	0.47246608	100
0	0.8876396	0.4605386	0	-2.5863217e-15	-2.5872003e-15	0.478602	100
0	0.88479716	0.4659764	0	-2.5863215e-15	-2.5872003e-15	0.48473793	100
0	0.88192123	0.47139665	0	-2.5863213e-15	-2.5871997e-15	0.49087384	100
0	0.8790122	0.47679913	0	-2.5863213e-15	-2.5871999e-15	0.49700978	100
0	0.8760702	0.48218367	0	-2.5863213e-15	-2.5872e-15	0.5031457	100
0	0.87309504	0.48755005	0	-2.586322e-15	-2.5872003e-15	0.50928164	100
0	0.8700871	0.49289808	0	-2.5863215e-15	-2.5872003e-15	0.5154175	100
0	0.86704636	0.4982276	0	-2.5863213e-15	-2.5871999e-15	0.52155346	100
0	0.86397284	0.5035383	0	-2.5863215e-15	-2.5871999e-15	0.5276894	100
0	0.86086684	0.5088301	0	-2.5863217e-15	-2.5872e-15	0.53382534	100
0	0.85772866	0.5141027	0	-2.5863215e-15	-2.5872003e-15	0.5399612	100
0	0.8545581	0.51935595	0	-2.5863215e-15	-2.5871999e-15	0.54609716	100
0	0.8513554	0.5245896	0	-2.5863215e-15	-2.5872e-15	0.5522331	100
0	0.8481204	0.5298035	0	-2.5863213e-15	-2.5871999e-15	0.558369	100
0	0.8448535	0.5349975	0	-2.5863215e-15	-2.5872e-15	0.5645049	100
0	0.841555	0.54017144	0	-2.586321e-15	-2.5871999e-15	0.57064086	100
0	0.8382248	0.54532486	0	-2.5863213e-15	-2.5871997e-15	0.5767768	100
0	0.83486295	0.55045784	0	-2.5863215e-15	-2.5872e-15	0.5829127	100
0	0.83146966	0.5555701	0	-2.5863213e-15	-2.5871999e-15	0.5890486	100
0	0.8280451	0.5606615	0	-2.5863215e-15	-2.5872e-15	0.59518456	100
0	0.8245893	0.5657317	0	-2.5863217e-15	-2.5872003e-15	0.60132045	100
0	0.8211025	0.5707807	0	-2.5863215e-15	-2.5871997e-15	0.6074564	100
0	0.8175848	0.5758081	0	-2.586321e-15	-2.5871997e-15	0.6135923	100
0	0.8140364	0.5808139	0	-2.586321e-15	-2.5871999e-15	0.61972827	100
0	0.8104573	0.5857978	0	-2.5863217e-15	-2.5872003e-15	0.62586415	100
0	0.8068476	0.59075963	0	-2.5863217e-15	-2.5872003e-15	0.6320001	100
0	0.8032076	0.5956992	0	-2.5863213e-15	-2.5872e-15	0.638136	100
0	0.79953736	0.60061646	0	-2.5863213e-15	-2.5871999e-15	0.6442719	100
0	0.795837	0.605511	0	-2.5863213e-15	-2.5871997e-15	0.65040785	100
0	0.7921066	0.6103828	0	-2.586321e-15	-2.5871997e-15	0.6565438	100
0	0.7883464	0.6152315	0	-2.5863213e-15	-2.5871999e-15	0.6626797	100
0	0.7845566	0.62005717	0	-2.5863215e-15	-2.5871999e-15	0.6688156	100
0	0.78073716	0.62485945	0	-2.5863215e-15	-2.5872e-15	0.67495155	100
0	0.77688855	0.62963825	0	-2.5863215e-15	-2.5871999e-15	0.6810875	100
0	0.77301043	0.6343932	0	-2.586321e-15	-2.5871997e-15	0.6872234	100
0	0.76910335	0.63912445	0	-2.5863215e-15	-2.5872e-15	0.6933593	100
0	0.7651673	0.6438316	0	-2.5863217e-15	-2.5872e-15	0.69949526	100
0	0.7612024	0.64851433	0	-2.586321e-15	-2.5871997e-15	0.70563114	100
0	0.7572089	0.6531728	0	-2.5863215e-15	-2.5872003e-15	0.7117671	100
0	0.7531869	0.6578067	0	-2.5863215e-15	-2.5871999e-15	0.717903	100
0	0.74913645	0.6624158	0	-2.5863213e-15	-2.5871999e-15	0.72403896	100
0	0.7450578	0.6669999	0	-2.586321e-15	-2.5871997e-15	0.73017484	100
0	0.7409512	0.671559	0	-2.5863217e-15	-2.5872003e-15	0.7363108	100
0	0.73681664	0.67609274	0	-2.5863215e-15	-2.5872e-15	0.7424467	100
0	0.73265433	0.68060094	0	-2.5863215e-15	-2.5872003e-15	0.7485826	100
0	0.7284644	0.68508375	0	-2.5863217e-15	-2.5872003e-15	0.75471854	100
0	0.72424704	0.68954057	0	-2.5863217e-15	-2.5872e-15	0.7608545	100
0	0.7200025	0.69397146	0	-2.5863217e-15	-2.5872003e-15	0.7669904	100
0	0.7157309	0.6983762	0	-2.5863215e-15	-2.5871999e-15	0.7731263	100
0	0.7114323	0.7027548	0	-2.5863215e-15	-2.5872e-15	0.77926224	100
0	0.7071068	0.7071068	0	-2.5863217e-15	-2.5872003e-15	0.7853982	100
0	0.7027548	0.7114322	0	-2.5863215e-15	-2.5872003e-15	0.79153407	100
0	0.69837624	0.71573085	0	-2.5863215e-15	-2.5872e-15	0.79767	100
0	0.69397146	0.7200025	0	-2.5863215e-15	-2.5871999e-15	0.80380595	100
0	0.68954057	0.72424704	0	-2.5863215e-15	-2.5872e-15	0.8099418	100
0	0.6850836	0.72846437	0	-2.5863217e-15	-2.5872003e-15	0.81607777	100
0	0.680601	0.7326544	0	-2.586321e-15	-2.5872e-15	0.8222137	100
0	0.67609274	0.7368166	0	-2.5863215e-15	-2.5872e-15	0.82834965	100
0	0.671559	0.7409512	0	-2.5863217e-15	-2.5872003e-15	0.83448553	100
0	0.66699994	0.7450578	0	-2.5863215e-15	-2.5872003e-15	0.8406215	100
0	0.66241574	0.7491364	0	-2.5863217e-15	-2.5872003e-15	0.8467574	100
0	0.65780663	0.7531869	0	-2.5863215e-15	-2.5872e-15	0.8528933	100
0	0.6531728	0.75720894	0	-2.5863215e-15	-2.5872e-15	0.85902923	100
0	0.64851433	0.7612024	0	-2.5863215e-15	-2.5871999e-15	0.8651652	100
0	0.6438316	0.7651673	0	-2.586321e-15	-2.5871997e-15	0.8713011	100
0	0.63912445	0.76910335	0	-2.5863215e-15	-2.5872e-15	0.877437	100
0	0.6343932	0.7730105	0	-2.5863215e-15	-2.5872e-15	0.88357294	100
0	0.6296382	0.77688855	0	-2.5863213e-15	-2.5871999e-15	0.8897089	100
0	0.6248595	0.7807373	0	-2.5863215e-15	-2.5872e-15	0.89584476	100
0	0.62005717	0.7845566	0	-2.586321e-15	-2.5871997e-15	0.9019807	100
0	0.6152316	0.7883464	0	-2.5863217e-15	-2.5872e-15	0.90811664	100
0	0.6103828	0.7921066	0	-2.5863213e-15	-2.5871999e-15	0.9142526	100
0	0.60551107	0.7958369	0	-2.5863215e-15	-2.5871997e-15	0.92038846	100
0	0.60061646	0.7995373	0	-2.5863213e-15	-2.5871999e-15	0.9265244	100
0	0.59569925	0.8032076	0	-2.586321e-15	-2.5872e-15	0.93266034	100
0	0.5907597	0.8068476	0	-2.5863213e-15	-2.5871999e-15	0.9387962	100
0	0.5857978	0.8104573	0	-2.5863217e-15	-2.5872003e-15	0.94493216	100
0	0.5808139	0.8140364	0	-2.5863215e-15	-2.5872003e-15	0.9510681	100
0	0.5758081	0.81758493	0	-2.5863215e-15	-2.5872e-15	0.957204	100
0	0.5707807	0.8211025	0	-2.5863215e-15	-2.5872e-15	0.9633399	100
0	0.56573176	0.82458925	0	-2.586321e-15	-2.5872e-15	0.96947587	100
0	0.5606615	0.8280451	0	-2.5863215e-15	-2.5872e-15	0.9756118	100
0	0.5555702	0.8314697	0	-2.5863215e-15	-2.5872e-15	0.9817477	100
0	0.5504579	0.8348629	0	-2.586322e-15	-2.5872003e-15	0.9878836	100
0	0.5453249	0.8382248	0	-2.5863213e-15	-2.5872e-15	0.99401957	100
0	0.54017144	0.841555	0	-2.5863213e-15	-2.5871997e-15	1.0001554	100
0	0.5349975	0.8448535	0	-2.5863217e-15	-2.5872003e-15	1.0062914	100
0	0.5298035	0.8481203	0	-2.5863215e-15	-2.5871999e-15	1.0124273	100
0	0.5245896	0.85135525	0	-2.5863215e-15	-2.5872e-15	1.0185633	100
0	0.5193559	0.8545581	0	-2.5863213e-15	-2.5871999e-15	1.0246992	100
0	0.5141027	0.85772866	0	-2.5863213e-15	-2.5871997e-15	1.030835	100
0	0.5088301	0.860867	0	-2.5863217e-15	-2.5872003e-15	1.036971	100
0	0.50353837	0.8639729	0	-2.5863215e-15	-2.5872e-15	1.0431069	100
0	0.49822757	0.86704624	0	-2.5863215e-15	-2.5872e-15	1.0492429	100
0	0.4928981	0.87008715	0	-2.5863213e-15	-2.5872e-15	1.0553788	100
0	0.48755005	0.87309504	0	-2.5863215e-15	-2.5872e-15	1.0615147	100
0	0.4821837	0.8760702	0	-2.5863217e-15	-2.5872003e-15	1.0676507	100
0	0.47679916	0.8790123	0	-2.5863215e-15	-2.5872e-15	1.0737865	100
0	0.47139663	0.8819212	0	-2.5863215e-15	-2.5872e-15	1.0799224	100
0	0.4659764	0.8847973	0	-2.5863215e-15	-2.5872e-15	1.0860584	100
0	0.4605386	0.8876397	0	-2.5863213e-15	-2.5871999e-15	1.0921943	100
0	0.45508346	0.89044875	0	-2.5863213e-15	-2.5872003e-15	1.0983303	100
0	0.4496112	0.89322436	0	-2.5863215e-15	-2.5872e-15	1.1044662	100
0	0.44412208	0.8959663	0	-2.5863215e-15	-2.5872e-15	1.1106021	100
0	0.43861616	0.89867437	0	-2.5863215e-15	-2.5872e-15	1.116738	100
0	0.43309373	0.9013489	0	-2.5863215e-15	-2.5872e-15	1.1228739	100
0	0.42755497	0.9039894	0	-2.5863213e-15	-2.5872e-15	1.1290098	100
0	0.42200017	0.90659577	0	-2.5863215e-15	-2.5871997e-15	1.1351458	100
0	0.41642943	0.909168	0	-2.5863215e-15	-2.5872e-15	1.1412817	100
0	0.41084307	0.911706	0	-2.5863215e-15	-2.5871999e-15	1.1474177	100
0	0.4052412	0.9142098	0	-2.5863213e-15	-2.5871999e-15	1.1535536	100
0	0.3996241	0.916679	0	-2.5863215e-15	-2.5872e-15	1.1596894	100
0	0.39399195	0.9191138	0	-2.5863215e-15	-2.5872e-15	1.1658254	100
0	0.3883449	0.92151415	0	-2.5863215e-15	-2.5871999e-15	1.1719613	100
0	0.38268334	0.9238796	0	-2.5863215e-15	-2.5872e-15	1.1780972	100
0	0.37700728	0.92621017	0	-2.5863215e-15	-2.5872e-15	1.1842332	100
0	0.37131706	0.9285061	0	-2.5863213e-15	-2.5872e-15	1.1903691	100
0	0.3656129	0.93076694	0	-2.5863215e-15	-2.5871999e-15	1.1965051	100
0	0.3598949	0.93299276	0	-2.5863215e-15	-2.5871997e-15	1.2026409	100
0	0.35416338	0.93518347	0	-2.5863215e-15	-2.5871997e-15	1.2087768	100
0	0.34841856	0.93733907	0	-2.5863213e-15	-2.5871999e-15	1.2149128	100
0	0.34266058	0.9394593	0	-2.5863217e-15	-2.5871999e-15	1.2210487	100
0	0.3368897	0.9415441	0	-2.5863213e-15	-2.5871997e-15	1.2271847	100
0	0.33110622	0.9435935	0	-2.5863213e-15	-2.5871997e-15	1.2333206	100
0	0.32531017	0.94560736	0	-2.5863215e-15	-2.5871997e-15	1.2394565	100
0	0.31950194	0.9475856	0	-2.5863215e-15	-2.5871997e-15	1.2455924	100
0	0.31368163	0.9495283	0	-2.5863217e-15	-2.5872e-15	1.2517283	100
0	0.30784953	0.95143497	0	-2.5863215e-15	-2.5871999e-15	1.2578642	100
0	0.30200583	0.9533061	0	-2.5863217e-15	-2.5872e-15	1.2640002	100
0	0.2961508	0.95514107	0	-2.5863215e-15	-2.5871999e-15	1.2701361	100
0	0.29028457	0.95694035	0	-2.586321e-15	-2.5871997e-15	1.276272	100
0	0.28440744	0.9587034	0	-2.5863215e-15	-2.5871999e-15	1.2824079	100
0	0.27851957	0.96043056	0	-2.5863217e-15	-2.5871999e-15	1.2885438	100
0	0.27262124	0.96212137	0	-2.586322e-15	-2.5872e-15	1.2946798	100
0	0.26671264	0.963776	0	-2.5863215e-15	-2.5871999e-15	1.3008157	100
0	0.26079404	0.96539444	0	-2.5863217e-15	-2.5871999e-15	1.3069516	100
0	0.25486556	0.96697646	0	-2.5863213e-15	-2.5872e-15	1.3130876	100
0	0.2489275	0.9685221	0	-2.5863215e-15	-2.5871999e-15	1.3192235	100
0	0.24298006	0.97003126	0	-2.5863213e-15	-2.5872e-15	1.3253593	100
0	0.23702352	0.9715039	0	-2.5863217e-15	-2.5872e-15	1.3314953	100
0	0.23105802	0.97293997	0	-2.5863215e-15	-2.5871999e-15	1.3376312	100
0	0.2250838	0.9743394	0	-2.5863217e-15	-2.5871999e-15	1.3437672	100
0	0.21910115	0.9757021	0	-2.5863217e-15	-2.5872e-15	1.3499031	100
0	0.21311022	0.977028	0	-2.5863215e-15	-2.5871999e-15	1.356039	100
0	0.20711131	0.9783174	0	-2.5863213e-15	-2.5871999e-15	1.362175	100
0	0.20110455	0.9795698	0	-2.5863215e-15	-2.5871999e-15	1.3683108	100
0	0.19509023	0.9807852	0	-2.5863217e-15	-2.5872e-15	1.3744467	100
0	0.18906857	0.9819638	0	-2.5863217e-15	-2.5872e-15	1.3805827	100
0	0.18303983	0.98310554	0	-2.5863213e-15	-2.5871997e-15	1.3867186	100
0	0.17700414	0.9842101	0	-2.5863215e-15	-2.5871999e-15	1.3928546	100
0	0.17096181	0.98527765	0	-2.5863215e-15	-2.5871997e-15	1.3989905	100
0	0.16491304	0.98630804	0	-2.5863215e-15	-2.5871999e-15	1.4051265	100
0	0.15885809	0.98730147	0	-2.5863215e-15	-2.5871999e-15	1.4112623	100
0	0.15279712	0.9882575	0	-2.5863217e-15	-2.5871997e-15	1.4173982	100
0	0.1467304	0.98917645	0	-2.5863215e-15	-2.5871999e-15	1.4235342	100
0	0.14065817	0.9900582	0	-2.5863217e-15	-2.5872e-15	1.4296701	100
0	0.13458066	0.9909027	0	-2.5863217e-15	-2.5872e-15	1.435806	100
0	0.12849806	0.9917097	0	-2.5863215e-15	-2.5871997e-15	1.441942	100
0	0.12241061	0.9924795	0	-2.5863215e-15	-2.5871997e-15	1.4480779	100
0	0.116318576	0.9932119	0	-2.5863215e-15	-2.5871999e-15	1.4542137	100
0	0.11022217	0.9939069	0	-2.5863215e-15	-2.5871999e-15	1.4603497	100
0	0.10412158	0.9945644	0	-2.5863215e-15	-2.5871999e-15	1.4664856	100
0	0.09801709	0.99518466	0	-2.5863215e-15	-2.5872e-15	1.4726216	100
0	0.09190892	0.9957673	0	-2.5863215e-15	-2.5871999e-15	1.4787575	100
0	0.08579727	0.9963125	0	-2.5863215e-15	-2.5871999e-15	1.4848934	100
0	0.079682395	0.9968203	0	-2.5863217e-15	-2.5872e-15	1.4910294	100
0	0.07356454	0.99729043	0	-2.5863215e-15	-2.5871997e-15	1.4971652	100
0	0.067443885	0.9977231	0	-2.5863217e-15	-2.5872e-15	1.5033011	100
0	0.061320703	0.99811804	0	-2.5863215e-15	-2.5871997e-15	1.5094371	100
0	0.055195224	0.9984756	0	-2.5863215e-15	-2.5871999e-15	1.515573	100
0	0.04906765	0.9987954	0	-2.5863217e-15	-2.5872e-15	1.521709	100
0	0.042938236	0.9990776	0	-2.5863217e-15	-2.5872e-15	1.5278449	100
0	0.036807206	0.99932224	0	-2.5863217e-15	-2.5871997e-15	1.5339808	100
0	0.030674787	0.9995293	0	-2.5863217e-15	-2.5872e-15	1.5401167	100
0	0.024541216	0.99969876	0	-2.5863215e-15	-2.5871999e-15	1.5462526	100
0	0.01840672	0.99983054	0	-2.5863215e-15	-2.5871997e-15	1.5523885	100
0	0.012271531	0.99992466	0	-2.5863217e-15	-2.5871999e-15	1.5585245	100
0	0.0061358814	0.99998105	0	-2.5863215e-15	-2.5872e-15	1.5646604	100
0	2.6818e-12	1	0	-2.5863215e-15	-2.5871999e-15	1.5707964	100
0	0.9999997	5.759571e-13	0	-1.2927217e-15	-1.2935997e-15	0	50
0	0.9999809	0.006135872	0	-1.2927219e-15	-1.2935998e-15	0.0061359233	50
0	0.99992436	0.012271513	0	-1.2927217e-15	-1.2935995e-15	0.012271847	50
0	0.9998303	0.018406695	0	-1.2927215e-15	-1.2935995e-15	0.01840777	50
0	0.99969864	0.024541179	0	-1.2927218e-15	-1.2935997e-15	0.024543693	50
0	0.9995292	0.030674743	0	-1.292722e-15	-1.2935997e-15	0.030679615	50
0	0.99932206	0.03680715	0	-1.2927216e-15	-1.2935994e-15	0.03681554	50
0	0.9990775	0.042938173	0	-1.2927216e-15	-1.2935995e-15	0.04295146	50
0	0.99879515	0.049067575	0	-1.2927218e-15	-1.2935998e-15	0.049087387	50
0	0.9984754	0.05519514	0	-1.2927218e-15	-1.2935997e-15	0.05522331	50
0	0.9981179	0.06132061	0	-1.2927217e-15	-1.2935996e-15	0.06135923	50
0	0.9977228	0.06744379	0	-1.2927218e-15	-1.2935995e-15	0.06749515	50
0	0.9972902	0.07356442	0	-1.2927216e-15	-1.2935995e-15	0.07363108	50
0	0.99682	0.07968228	0	-1.2927217e-15	-1.2935996e-15	0.079767	50
0	0.9963123	0.08579714	0	-1.2927218e-15	-1.2935997e-15	0.08590292	50
0	0.99576724	0.09190878	0	-1.2927218e-15	-1.2935996e-15	0.09203885	50
0	0.9951846	0.09801694	0	-1.2927219e-15	-1.2935998e-15	0.09817477	50
0	0.9945644	0.10412143	0	-1.2927217e-15	-1.2935996e-15	0.10431069	50
0	0.99390674	0.11022199	0	-1.2927218e-15	-1.2935997e-15	0.11044662	50
0	0.9932117	0.1163184	0	-1.2927218e-15	-1.2935995e-15	0.11658254	50
0	0.99247926	0.12241043	0	-1.2927221e-15	-1.2935998e-15	0.12271846	50
0	0.99170965	0.12849787	0	-1.2927218e-15	-1.2935997e-15	0.12885438	50
0	0.9909025	0.13458045	0	-1.2927216e-15	-1.2935995e-15	0.1349903	50
0	0.990058	0.14065798	0	-1.2927218e-15	-1.2935997e-15	0.14112623	50
0	0.9891763	0.1467302	0	-1.2927218e-15	-1.2935998e-15	0.14726216	50
0	0.98825735	0.1527969	0	-1.2927217e-15	-1.2935996e-15	0.15339808	50
0	0.98730123	0.15885787	0	-1.2927214e-15	-1.2935994e-15	0.159534	50
0	0.986308	0.16491282	0	-1.2927218e-15	-1.2935998e-15	0.16566992	50
0	0.9852774	0.17096159	0	-1.2927219e-15	-1.2935998e-15	0.17180584	50
0	0.9842099	0.17700392	0	-1.2927218e-15	-1.2935998e-15	0.17794177	50
0	0.98310536	0.18303956	0	-1.2927217e-15	-1.2935997e-15	0.1840777	50
0	0.9819637	0.1890683	0	-1.2927217e-15	-1.2935997e-15	0.19021362	50
0	0.98078513	0.19508995	0	-1.2927217e-15	-1.2935995e-15	0.19634955	50
0	0.97956955	0.20110427	0	-1.2927217e-15	-1.2935997e-15	0.20248546	50
0	0.97831726	0.207111	0	-1.2927216e-15	-1.2935995e-15	0.20862138	50
0	0.977028	0.21310993	0	-1.2927218e-15	-1.2935997e-15	0.21475731	50
0	0.975702	0.21910086	0	-1.2927215e-15	-1.2935997e-15	0.22089323	50
0	0.9743392	0.2250835	0	-1.2927218e-15	-1.2935998e-15	0.22702916	50
0	0.9729398	0.23105767	0	-1.2927217e-15	-1.2935998e-15	0.23316509	50
0	0.9715038	0.23702322	0	-1.2927216e-15	-1.2935997e-15	0.239301	50
0	0.9700312	0.24297975	0	-1.2927219e-15	-1.2935999e-15	0.24543692	50
0	0.968522	0.24892722	0	-1.2927218e-15	-1.2935998e-15	0.25157285	50
0	0.96697634	0.25486526	0	-1.2927217e-15	-1.2935998e-15	0.25770876	50
0	0.9653943	0.2607937	0	-1.2927217e-15	-1.2935995e-15	0.2638447	50
0	0.963776	0.2667123	0	-1.2927217e-15	-1.2935996e-15	0.2699806	50
0	0.9621213	0.27262092	0	-1.2927217e-15	-1.2935997e-15	0.27611655	50
0	0.96043044	0.27851924	0	-1.2927216e-15	-1.2935997e-15	0.28225246	50
0	0.9587034	0.2844071	0	-1.2927216e-15	-1.2935997e-15	0.2883884	50
0	0.95694035	0.29028422	0	-1.2927217e-15	-1.2935998e-15	0.2945243	50
0	0.9551412	0.29615042	0	-1.2927216e-15	-1.2935997e-15	0.30066022	50
0	0.953306	0.3020055	0	-1.2927219e-15	-1.2935999e-15	0.30679616	50
0	0.951435	0.3078492	0	-1.2927216e-15	-1.2935998e-15	0.31293207	50
0	0.9495282	0.31368127	0	-1.2927217e-15	-1.2935997e-15	0.319068	50
0	0.9475856	0.31950158	0	-1.2927218e-15	-1.2935998e-15	0.32520393	50
0	0.94560736	0.32530984	0	-1.2927214e-15	-1.2935994e-15	0.33133984	50
0	0.9435935	0.33110583	0	-1.2927216e-15	-1.2935997e-15	0.33747578	50
0	0.941544	0.3368894	0	-1.2927216e-15	-1.2935997e-15	0.3436117	50
0	0.93945926	0.34266025	0	-1.2927217e-15	-1.2935997e-15	0.34974763	50
0	0.93733907	0.34841818	0	-1.2927218e-15	-1.2935998e-15	0.35588354	50
0	0.9351836	0.35416305	0	-1.2927217e-15	-1.2935999e-15	0.36201948	50
0	0.93299276	0.35989454	0	-1.2927218e-15	-1.2935998e-15	0.3681554	50
0	0.93076694	0.3656125	0	-1.2927216e-15	-1.2935998e-15	0.3742913	50
0	0.9285061	0.37131676	0	-1.2927215e-15	-1.2935997e-15	0.38042724	50
0	0.92621017	0.37700695	0	-1.2927216e-15	-1.2935998e-15	0.38656315	50
0	0.92387956	0.38268298	0	-1.2927215e-15	-1.2935996e-15	0.3926991	50
0	0.9215141	0.3883446	0	-1.2927216e-15	-1.2935997e-15	0.398835	50
0	0.91911393	0.3939916	0	-1.2927216e-15	-1.2935998e-15	0.4049709	50
0	0.91667914	0.39962378	0	-1.2927217e-15	-1.2935998e-15	0.41110685	50
0	0.9142098	0.4052409	0	-1.2927217e-15	-1.2935998e-15	0.41724277	50
0	0.91170603	0.4108427	0	-1.2927216e-15	-1.2935997e-15	0.4233787	50
0	0.909168	0.4164291	0	-1.2927218e-15	-1.2935998e-15	0.42951462	50
0	0.90659577	0.42199987	0	-1.2927216e-15	-1.2935998e-15	0.43565056	50
0	0.9039894	0.42755464	0	-1.2927216e-15	-1.2935998e-15	0.44178647	50
0	0.9013488	0.4330934	0	-1.2927216e-15	-1.2935998e-15	0.44792238	50
0	0.8986745	0.43861586	0	-1.2927218e-15	-1.2936e-15	0.45405832	50
0	0.8959664	0.4441217	0	-1.2927215e-15	-1.2935997e-15	0.46019423	50
0	0.89322436	0.4496109	0	-1.2927216e-15	-1.2935998e-15	0.46633017	50
0	0.8904488	0.4550832	0	-1.2927214e-15	-1.2935997e-15	0.47246608	50
0	0.88763976	0.4605383	0	-1.2927214e-15	-1.2935996e-15	0.478602	50
0	0.88479716	0.46597606	0	-1.2927216e-15	-1.2936e-15	0.48473793	50
0	0.8819213	0.47139636	0	-1.2927216e-15	-1.2935998e-15	0.49087384	50
0	0.8790123	0.47679883	0	-1.2927216e-15	-1.2935998e-15	0.49700978	50
0	0.8760702	0.4821834	0	-1.2927214e-15	-1.2935998e-15	0.5031457	50
0	0.87309504	0.48754978	0	-1.2927216e-15	-1.2935998e-15	0.50928164	50
0	0.87008715	0.4928978	0	-1.2927216e-15	-1.2935998e-15	0.5154175	50
0	0.86704636	0.49822727	0	-1.2927215e-15	-1.2935998e-15	0.52155346	50
0	0.86397296	0.503538	0	-1.2927215e-15	-1.2935998e-15	0.5276894	50
0	0.8608671	0.5088298	0	-1.2927217e-15	-1.2935998e-15	0.53382534	50
0	0.8577287	0.51410234	0	-1.2927215e-15	-1.2935998e-15	0.5399612	50
0	0.85455817	0.51935565	0	-1.2927215e-15	-1.2936e-15	0.54609716	50
0	0.85135525	0.52458936	0	-1.2927217e-15	-1.2936e-15	0.5522331	50
0	0.84812045	0.5298033	0	-1.2927214e-15	-1.2935997e-15	0.558369	50
0	0.8448537	0.5349973	0	-1.2927215e-15	-1.2935999e-15	0.5645049	50
0	0.8415552	0.54017115	0	-1.2927216e-15	-1.2936e-15	0.57064086	50
0	0.8382248	0.5453246	0	-1.2927217e-15	-1.2936e-15	0.5767768	50
0	0.83486295	0.55045766	0	-1.2927216e-15	-1.2935999e-15	0.5829127	50
0	0.8314697	0.55556995	0	-1.2927215e-15	-1.2935998e-15	0.5890486	50
0	0.8280451	0.56066126	0	-1.2927216e-15	-1.2936e-15	0.59518456	50
0	0.8245895	0.5657315	0	-1.2927215e-15	-1.2935999e-15	0.60132045	50
0	0.8211026	0.57078046	0	-1.2927215e-15	-1.2935998e-15	0.6074564	50
0	0.81758493	0.57580787	0	-1.2927216e-15	-1.2935999e-15	0.6135923	50
0	0.8140364	0.5808137	0	-1.2927217e-15	-1.2936002e-15	0.61972827	50
0	0.81045735	0.5857976	0	-1.2927215e-15	-1.2935998e-15	0.62586415	50
0	0.8068477	0.59075946	0	-1.2927215e-15	-1.2935999e-15	0.6320001	50
0	0.8032077	0.5956991	0	-1.2927215e-15	-1.2935998e-15	0.638136	50
0	0.79953736	0.6006162	0	-1.2927215e-15	-1.2935999e-15	0.6442719	50
0	0.795837	0.60551083	0	-1.2927215e-15	-1.2935998e-15	0.65040785	50
0	0.7921067	0.6103826	0	-1.2927215e-15	-1.2935998e-15	0.6565438	50
0	0.78834647	0.61523145	0	-1.2927212e-15	-1.2935997e-15	0.6626797	50
0	0.7845567	0.62005705	0	-1.2927214e-15	-1.2935998e-15	0.6688156	50
0	0.7807373	0.6248593	0	-1.2927215e-15	-1.2935999e-15	0.67495155	50
0	0.77688855	0.6296381	0	-1.2927212e-15	-1.2935998e-15	0.6810875	50
0	0.7730105	0.6343931	0	-1.2927216e-15	-1.2936e-15	0.6872234	50
0	0.76910335	0.6391244	0	-1.2927214e-15	-1.2935999e-15	0.6933593	50
0	0.7651673	0.64383143	0	-1.2927214e-15	-1.2935998e-15	0.69949526	50
0	0.7612024	0.6485143	0	-1.2927214e-15	-1.2935998e-15	0.70563114	50
0	0.75720894	0.65317273	0	-1.2927214e-15	-1.2935998e-15	0.7117671	50
0	0.7531868	0.65780663	0	-1.2927216e-15	-1.2936e-15	0.717903	50
0	0.74913645	0.66241556	0	-1.2927215e-15	-1.2935999e-15	0.72403896	50
0	0.74505776	0.6669998	0	-1.2927212e-15	-1.2935998e-15	0.73017484	50
0	0.7409511	0.67155886	0	-1.2927215e-15	-1.2935999e-15	0.7363108	50
0	0.73681664	0.67609257	0	-1.2927212e-15	-1.2935998e-15	0.7424467	50
0	0.73265433	0.68060094	0	-1.2927214e-15	-1.2935998e-15	0.7485826	50
0	0.72846437	0.6850836	0	-1.2927216e-15	-1.2936e-15	0.75471854	50
0	0.72424704	0.68954057	0	-1.2927215e-15	-1.2936e-15	0.7608545	50
0	0.7200025	0.69397146	0	-1.2927216e-15	-1.2936e-15	0.7669904	50
0	0.7157308	0.6983762	0	-1.2927212e-15	-1.2935998e-15	0.7731263	50
0	0.7114321	0.70275474	0	-1.2927216e-15	-1.2936e-15	0.77926224	50
0	0.70710677	0.70710677	0	-1.2927216e-15	-1.2936002e-15	0.7853982	50
0	0.70275474	0.7114321	0	-1.2927212e-15	-1.2935998e-15	0.79153407	50
0	0.69837624	0.7157308	0	-1.2927212e-15	-1.2935998e-15	0.79767	50
0	0.6939714	0.7200025	0	-1.2927214e-15	-1.2935998e-15	0.80380595	50
0	0.68954045	0.72424704	0	-1.2927216e-15	-1.2936e-15	0.8099418	50
0	0.6850836	0.72846437	0	-1.2927214e-15	-1.2935998e-15	0.81607777	50
0	0.68060094	0.73265433	0	-1.2927214e-15	-1.2935998e-15	0.8222137	50
0	0.67609257	0.73681664	0	-1.2927216e-15	-1.2935999e-15	0.82834965	50
0	0.67155886	0.7409511	0	-1.2927215e-15	-1.2935999e-15	0.83448553	50
0	0.6669998	0.7450578	0	-1.2927214e-15	-1.2935998e-15	0.8406215	50
0	0.6624156	0.7491365	0	-1.2927216e-15	-1.2936e-15	0.8467574	50
0	0.6578066	0.7531868	0	-1.2927216e-15	-1.2936002e-15	0.8528933	50
0	0.6531727	0.7572089	0	-1.2927216e-15	-1.2936e-15	0.85902923	50
0	0.6485142	0.7612024	0	-1.2927216e-15	-1.2936e-15	0.8651652	50
0	0.64383143	0.76516736	0	-1.2927216e-15	-1.2936e-15	0.8713011	50
0	0.6391242	0.76910335	0	-1.2927214e-15	-1.2936e-15	0.877437	50
0	0.63439316	0.7730105	0	-1.2927214e-15	-1.2935998e-15	0.88357294	50
0	0.62963814	0.77688855	0	-1.2927214e-15	-1.2935999e-15	0.8897089	50
0	0.6248593	0.7807373	0	-1.2927215e-15	-1.2935998e-15	0.89584476	50
0	0.62005705	0.7845567	0	-1.2927212e-15	-1.2935998e-15	0.9019807	50
0	0.61523134	0.7883465	0	-1.2927215e-15	-1.2935998e-15	0.90811664	50
0	0.6103826	0.7921066	0	-1.2927215e-15	-1.2936e-15	0.9142526	50
0	0.60551083	0.795837	0	-1.2927214e-15	-1.2935997e-15	0.92038846	50
0	0.6006162	0.79953736	0	-1.2927215e-15	-1.2935998e-15	0.9265244	50
0	0.5956991	0.8032076	0	-1.2927216e-15	-1.2936e-15	0.93266034	50
0	0.59075946	0.80684763	0	-1.2927215e-15	-1.2935998e-15	0.9387962	50
0	0.58579755	0.8104573	0	-1.2927216e-15	-1.2935998e-15	0.94493216	50
0	0.5808137	0.8140364	0	-1.2927215e-15	-1.2935998e-15	0.9510681	50
0	0.57580787	0.817585	0	-1.2927215e-15	-1.2935998e-15	0.957204	50
0	0.57078046	0.8211026	0	-1.2927214e-15	-1.2935998e-15	0.9633399	50
0	0.5657315	0.82458943	0	-1.2927214e-15	-1.2935999e-15	0.96947587	50
0	0.56066126	0.8280452	0	-1.2927216e-15	-1.2935999e-15	0.9756118	50
0	0.55556995	0.8314697	0	-1.2927215e-15	-1.2935998e-15	0.9817477	50
0	0.55045766	0.83486295	0	-1.2927215e-15	-1.2935998e-15	0.9878836	50
0	0.5453247	0.83822477	0	-1.2927215e-15	-1.2935999e-15	0.99401957	50
0	0.54017115	0.84155506	0	-1.2927215e-15	-1.2935998e-15	1.0001554	50
0	0.5349973	0.8448537	0	-1.2927217e-15	-1.2936e-15	1.0062914	50
0	0.5298033	0.84812045	0	-1.2927214e-15	-1.2935998e-15	1.0124273	50
0	0.52458936	0.85135525	0	-1.2927215e-15	-1.2935998e-15	1.0185633	50
0	0.5193557	0.8545581	0	-1.2927217e-15	-1.2936e-15	1.0246992	50
0	0.51410234	0.8577287	0	-1.2927215e-15	-1.2935998e-15	1.030835	50
0	0.50882983	0.860867	0	-1.2927215e-15	-1.2935998e-15	1.036971	50
0	0.503538	0.86397296	0	-1.2927215e-15	-1.2935998e-15	1.0431069	50
0	0.49822724	0.86704636	0	-1.2927216e-15	-1.2935998e-15	1.0492429	50
0	0.4928978	0.87008697	0	-1.2927215e-15	-1.2935998e-15	1.0553788	50
0	0.48754978	0.87309504	0	-1.2927216e-15	-1.2936e-15	1.0615147	50
0	0.4821833	0.87607026	0	-1.2927215e-15	-1.2935998e-15	1.0676507	50
0	0.4767988	0.8790122	0	-1.2927216e-15	-1.2935998e-15	1.0737865	50
0	0.47139636	0.8819214	0	-1.2927216e-15	-1.2935998e-15	1.0799224	50
0	0.46597606	0.88479716	0	-1.2927217e-15	-1.2935998e-15	1.0860584	50
0	0.4605383	0.88763976	0	-1.2927214e-15	-1.2935997e-15	1.0921943	50
0	0.4550832	0.8904488	0	-1.2927216e-15	-1.2935998e-15	1.0983303	50
0	0.4496109	0.8932244	0	-1.2927216e-15	-1.2935998e-15	1.1044662	50
0	0.44412172	0.89596635	0	-1.2927215e-15	-1.2935998e-15	1.1106021	50