# t (s)	mx ()	my ()	mz ()	E_total (J)	E_Zeeman (J)	Angle (rad)	Field (T)
0	0.9999988	-1.6702755e-11	0	-6.4592207e-16	-6.4679923e-16	0	25
0	0.9996976	0.024541028	0	-6.45922e-16	-6.467993e-16	0.024543693	25
0	0.9987944	0.049067274	0	-6.459222e-16	-6.4679933e-16	0.049087387	25
0	0.9972894	0.07356397	0	-6.4592207e-16	-6.467993e-16	0.07363108	25
0	0.99518365	0.09801637	0	-6.459221e-16	-6.4679933e-16	0.09817477	25
0	0.9924786	0.12240973	0	-6.45922e-16	-6.467992e-16	0.12271846	25
0	0.9891757	0.14672935	0	-6.4592207e-16	-6.4679933e-16	0.14726216	25
0	0.98527676	0.17096062	0	-6.4592207e-16	-6.4679933e-16	0.17180584	25
0	0.98078454	0.1950889	0	-6.459219e-16	-6.467993e-16	0.19634955	25
0	0.97570145	0.21909972	0	-6.459219e-16	-6.4679933e-16	0.22089323	25
0	0.97003067	0.24297853	0	-6.4592207e-16	-6.467995e-16	0.24543692	25
0	0.96377563	0.26671103	0	-6.4592207e-16	-6.4679955e-16	0.2699806	25
0	0.9569399	0.29028288	0	-6.459219e-16	-6.4679944e-16	0.2945243	25
0	0.949528	0.31367987	0	-6.459218e-16	-6.467994e-16	0.319068	25
0	0.94154394	0.336888	0	-6.459219e-16	-6.467995e-16	0.3436117	25
0	0.9329927	0.3598931	0	-6.459218e-16	-6.467995e-16	0.3681554	25
0	0.92387956	0.38268155	0	-6.459218e-16	-6.467996e-16	0.3926991	25
0	0.91420984	0.40523946	0	-6.459218e-16	-6.467996e-16	0.41724277	25
0	0.9039895	0.42755327	0	-6.459217e-16	-6.4679955e-16	0.44178647	25
0	0.89322466	0.44960958	0	-6.4592186e-16	-6.467997e-16	0.46633017	25
0	0.88192147	0.47139508	0	-6.459217e-16	-6.467996e-16	0.49087384	25
0	0.8700874	0.4928966	0	-6.459217e-16	-6.467997e-16	0.5154175	25
0	0.85772896	0.51410127	0	-6.459216e-16	-6.4679965e-16	0.5399612	25
0	0.8448538	0.5349963	0	-6.4592165e-16	-6.4679976e-16	0.5645049	25
0	0.83146995	0.555569	0	-6.4592165e-16	-6.4679976e-16	0.5890486	25
0	0.8175851	0.57580703	0	-6.4592165e-16	-6.467998e-16	0.6135923	25
0	0.8032079	0.5956983	0	-6.459216e-16	-6.467998e-16	0.638136	25
0	0.78834677	0.61523074	0	-6.459216e-16	-6.467998e-16	0.6626797	25
0	0.7730107	0.63439256	0	-6.459216e-16	-6.4679986e-16	0.6872234	25
0	0.757209	0.65317225	0	-6.459216e-16	-6.4679986e-16	0.7117671	25
0	0.74095124	0.6715586	0	-6.459216e-16	-6.467999e-16	0.7363108	25
0	0.72424704	0.68954027	0	-6.459216e-16	-6.467998e-16	0.7608545	25
0	0.7071066	0.7071066	0	-6.4592144e-16	-6.4679976e-16	0.7853982	25
0	0.68954027	0.7242469	0	-6.4592154e-16	-6.4679976e-16	0.8099418	25
0	0.67155856	0.7409511	0	-6.4592154e-16	-6.4679986e-16	0.83448553	25
0	0.6531724	0.757209	0	-6.459216e-16	-6.4679976e-16	0.85902923	25
0	0.6343926	0.7730107	0	-6.459216e-16	-6.467999e-16	0.88357294	25
0	0.61523074	0.7883466	0	-6.459216e-16	-6.467998e-16	0.90811664	25
0	0.5956983	0.8032079	0	-6.4592165e-16	-6.467998e-16	0.93266034	25
0	0.57580703	0.8175851	0	-6.4592165e-16	-6.467998e-16	0.957204	25
0	0.555569	0.83146995	0	-6.4592165e-16	-6.467998e-16	0.9817477	25
0	0.5349963	0.8448538	0	-6.459217e-16	-6.467998e-16	1.0062914	25
0	0.51410127	0.85772896	0	-6.4592165e-16	-6.467997e-16	1.030835	25
0	0.4928966	0.87008727	0	-6.459217e-16	-6.467997e-16	1.0553788	25
0	0.47139508	0.8819215	0	-6.4592165e-16	-6.467996e-16	1.0799224	25
0	0.44960958	0.89322454	0	-6.4592176e-16	-6.4679965e-16	1.1044662	25
0	0.4275533	0.90398955	0	-6.459217e-16	-6.467996e-16	1.1290098	25
0	0.40523943	0.91420984	0	-6.459218e-16	-6.4679965e-16	1.1535536	25
0	0.38268155	0.92387956	0	-6.4592186e-16	-6.467996e-16	1.1780972	25
0	0.35989305	0.9329927	0	-6.459218e-16	-6.4679944e-16	1.2026409	25
0	0.33688796	0.94154394	0	-6.459218e-16	-6.4679944e-16	1.2271847	25
0	0.31367987	0.949528	0	-6.459219e-16	-6.467995e-16	1.2517283	25
0	0.29028288	0.95694005	0	-6.459219e-16	-6.467994e-16	1.276272	25
0	0.26671103	0.96377563	0	-6.45922e-16	-6.467995e-16	1.3008157	25
0	0.2429785	0.9700307	0	-6.4592197e-16	-6.467995e-16	1.3253593	25
0	0.2190997	0.97570145	0	-6.4592197e-16	-6.4679933e-16	1.3499031	25
0	0.1950889	0.98078454	0	-6.45922e-16	-6.4679933e-16	1.3744467	25
0	0.17096062	0.98527676	0	-6.4592207e-16	-6.4679933e-16	1.3989905	25
0	0.14672935	0.9891756	0	-6.45922e-16	-6.467993e-16	1.4235342	25
0	0.12240972	0.99247855	0	-6.459221e-16	-6.4679933e-16	1.4480779	25
0	0.09801637	0.9951837	0	-6.4592207e-16	-6.467993e-16	1.4726216	25
0	0.07356398	0.9972894	0	-6.4592207e-16	-6.467993e-16	1.4971652	25
0	0.049067277	0.99879426	0	-6.4592207e-16	-6.467993e-16	1.521709	25
0	0.024541028	0.99969774	0	-6.4592207e-16	-6.4679923e-16	1.5462526	25
0	-3.045373e-11	0.9999988	0	-6.4592207e-16	-6.4679923e-16	1.5707964	25
0	0.99980855	-3.3059935e-10	0	-3.9555913e-17	-4.0417262e-17	0	1.5625
0	0.9995087	0.024499116	0	-3.9555896e-17	-4.0417276e-17	0.024543693	1.5625
0	0.99860936	0.048984002	0	-3.9555843e-17	-4.041733e-17	0.049087387	1.5625
0	0.99711114	0.073440306	0	-3.9555747e-17	-4.04174e-17	0.07363108	1.5625
0	0.9950146	0.09785374	0	-3.9555618e-17	-4.041751e-17	0.09817477	1.5625
0	0.99232113	0.12220969	0	-3.955546e-17	-4.041765e-17	0.12271846	1.5625
0	0.98903173	0.146495	0	-3.9555264e-17	-4.0417815e-17	0.14726216	1.5625
0	0.98514855	0.17069371	0	-3.9555036e-17	-4.0418003e-17	0.17180584	1.5625
0	0.98067343	0.19479264	0	-3.955478e-17	-4.041822e-17	0.19634955	1.5625
0	0.9756089	0.21877797	0	-3.9554493e-17	-4.0418453e-17	0.22089323	1.5625
0	0.96995777	0.24263382	0	-3.955419e-17	-4.0418715e-17	0.24543692	1.5625
0	0.96372247	0.26634908	0	-3.9553868e-17	-4.0418996e-17	0.2699806	1.5625
0	0.95690775	0.28990528	0	-3.955352e-17	-4.0419284e-17	0.2945243	1.5625
0	0.9495159	0.3132923	0	-3.955316e-17	-4.0419592e-17	0.319068	1.5625
0	0.9415518	0.33649406	0	-3.95528e-17	-4.0419913e-17	0.3436117	1.5625
0	0.9330194	0.35949808	0	-3.9552415e-17	-4.042023e-17	0.3681554	1.5625
0	0.9239246	0.38228709	0	-3.9552028e-17	-4.042055e-17	0.3926991	1.5625
0	0.91427076	0.40485233	0	-3.9551654e-17	-4.0420882e-17	0.41724277	1.5625
0	0.9040654	0.42717487	0	-3.9551267e-17	-4.04212e-17	0.44178647	1.5625
0	0.8933129	0.4492441	0	-3.95509e-17	-4.0421524e-17	0.46633017	1.5625
0	0.8820191	0.47104782	0	-3.9550536e-17	-4.0421832e-17	0.49087384	1.5625
0	0.87019235	0.49256825	0	-3.9550192e-17	-4.0422133e-17	0.5154175	1.5625
0	0.8578377	0.51379645	0	-3.9549864e-17	-4.0422414e-17	0.5399612	1.5625
0	0.84496325	0.5347175	0	-3.9549556e-17	-4.0422685e-17	0.5645049	1.5625
0	0.8315776	0.5553165	0	-3.9549272e-17	-4.0422933e-17	0.5890486	1.5625
0	0.81768703	0.5755837	0	-3.9549017e-17	-4.042316e-17	0.6135923	1.5625
0	0.80330133	0.59550446	0	-3.954879e-17	-4.0423357e-17	0.638136	1.5625
0	0.78842807	0.61506766	0	-3.9548587e-17	-4.0423522e-17	0.6626797	1.5625
0	0.77307725	0.6342598	0	-3.9548425e-17	-4.042367e-17	0.6872234	1.5625
0	0.7572576	0.65307003	0	-3.9548293e-17	-4.0423784e-17	0.7117671	1.5625
0	0.7409795	0.67148566	0	-3.95482e-17	-4.0423863e-17	0.7363108	1.5625
0	0.7242526	0.6894956	0	-3.9548144e-17	-4.042391e-17	0.7608545	1.5625
0	0.707088	0.707088	0	-3.954812e-17	-4.0423926e-17	0.7853982	1.5625
0	0.6894956	0.7242526	0	-3.954814e-17	-4.042391e-17	0.8099418	1.5625
0	0.6714855	0.74097973	0	-3.95482e-17	-4.042386e-17	0.83448553	1.5625
0	0.6530702	0.75725746	0	-3.954829e-17	-4.0423774e-17	0.85902923	1.5625
0	0.63425976	0.7730774	0	-3.9548418e-17	-4.0423665e-17	0.88357294	1.5625
0	0.6150676	0.7884281	0	-3.9548584e-17	-4.042352e-17	0.90811664	1.5625
0	0.5955048	0.80330104	0	-3.9548786e-17	-4.0423354e-17	0.93266034	1.5625
0	0.5755838	0.817687	0	-3.954901e-17	-4.0423152e-17	0.957204	1.5625
0	0.5553164	0.8315777	0	-3.9549272e-17	-4.0422937e-17	0.9817477	1.5625
0	0.534717	0.84496343	0	-3.9549556e-17	-4.0422685e-17	1.0062914	1.5625
0	0.51379657	0.8578377	0	-3.9549858e-17	-4.0422414e-17	1.030835	1.5625
0	0.49256888	0.870192	0	-3.9550192e-17	-4.0422133e-17	1.0553788	1.5625
0	0.47104692	0.8820195	0	-3.955054e-17	-4.0421832e-17	1.0799224	1.5625
0	0.44924447	0.89331275	0	-3.9550903e-17	-4.0421527e-17	1.1044662	1.5625
0	0.4271749	0.9040654	0	-3.955127e-17	-4.0421203e-17	1.1290098	1.5625
0	0.4048521	0.91427076	0	-3.9551654e-17	-4.042088e-17	1.1535536	1.5625
0	0.38228726	0.9239246	0	-3.9552038e-17	-4.0420558e-17	1.1780972	1.5625
0	0.35949835	0.93301934	0	-3.9552415e-17	-4.042023e-17	1.2026409	1.5625
0	0.33649373	0.9415519	0	-3.9552792e-17	-4.0419906e-17	1.2271847	1.5625
0	0.31329194	0.94951606	0	-3.9553166e-17	-4.0419595e-17	1.2517283	1.5625
0	0.28990534	0.95690775	0	-3.955352e-17	-4.0419284e-17	1.276272	1.5625
0	0.26634842	0.9637227	0	-3.9553868e-17	-4.0418996e-17	1.3008157	1.5625
0	0.242634	0.9699577	0	-3.9554192e-17	-4.0418718e-17	1.3253593	1.5625
0	0.21877767	0.9756089	0	-3.95545e-17	-4.0418457e-17	1.3499031	1.5625
0	0.19479251	0.9806735	0	-3.955478e-17	-4.041822e-17	1.3744467	1.5625
0	0.17069381	0.9851485	0	-3.9555036e-17	-4.0418003e-17	1.3989905	1.5625
0	0.14649504	0.98903173	0	-3.9555257e-17	-4.0417808e-17	1.4235342	1.5625
0	0.12220981	0.9923211	0	-3.9555456e-17	-4.0417646e-17	1.4480779	1.5625
0	0.097853735	0.99501467	0	-3.9555618e-17	-4.041751e-17	1.4726216	1.5625
0	0.07344037	0.9971112	0	-3.955574e-17	-4.0417398e-17	1.4971652	1.5625
0	0.048984043	0.99860954	0	-3.9555843e-17	-4.0417325e-17	1.521709	1.5625
0	0.024499347	0.99950886	0	-3.9555893e-17	-4.0417276e-17	1.5462526	1.5625
0	-5.471592e-10	0.99980855	0	-3.9555913e-17	-4.0417262e-17	1.5707964	1.5625
0	0.99857277	-1.5850339e-09	0	-9.252901e-18	-1.0091825e-17	0	0.390625
0	0.9982843	0.024109509	0	-9.252853e-18	-1.00918525e-17	0.024543693	0.390625
0	0.9974192	0.048206802	0	-9.2527025e-18	-1.0091931e-17	0.049087387	0.390625
0	0.9959774	0.072283	0	-9.252457e-18	-1.0092064e-17	0.07363108	0.390625
0	0.9939586	0.09633046	0	-9.2521136e-18	-1.0092248e-17	0.09817477	0.390625
0	0.9913636	0.12033105	0	-9.251678e-18	-1.0092484e-17	0.12271846	0.390625
0	0.98819184	0.14427821	0	-9.251152e-18	-1.009277e-17	0.14726216	0.390625
0	0.98444307	0.16816263	0	-9.250542e-18	-1.0093103e-17	0.17180584	0.390625
0	0.9801169	0.19197671	0	-9.249852e-18	-1.0093486e-17	0.19634955	0.390625
0	0.97521454	0.21570066	0	-9.249086e-18	-1.0093912e-17	0.22089323	0.390625
0	0.96973544	0.23932734	0	-9.248252e-18	-1.0094381e-17	0.24543692	0.390625
0	0.9636774	0.26285395	0	-9.247358e-18	-1.0094887e-17	0.2699806	0.390625
0	0.9570455	0.2862508	0	-9.246409e-18	-1.009543e-17	0.2945243	0.390625
0	0.94983536	0.30951998	0	-9.245418e-18	-1.0096004e-17	0.319068	0.390625
0	0.94204974	0.33264488	0	-9.244391e-18	-1.009661e-17	0.3436117	0.390625
0	0.93369174	0.3556057	0	-9.243336e-18	-1.0097237e-17	0.3681554	0.390625
0	0.9247583	0.3783988	0	-9.242265e-18	-1.0097884e-17	0.3926991	0.390625
0	0.91525847	0.40099216	0	-9.2411865e-18	-1.0098536e-17	0.41724277	0.390625
0	0.90518844	0.42338827	0	-9.240114e-18	-1.00992e-17	0.44178647	0.390625
0	0.89454705	0.44557762	0	-9.239055e-18	-1.0099862e-17	0.46633017	0.390625
0	0.88334185	0.46753535	0	-9.238019e-18	-1.01005155e-17	0.49087384	0.390625
0	0.87157214	0.4892537	0	-9.23702e-18	-1.0101156e-17	0.5154175	0.390625
0	0.8592547	0.5106945	0	-9.236068e-18	-1.0101771e-17	0.5399612	0.390625
0	0.8463727	0.5318789	0	-9.235171e-18	-1.010236e-17	0.5645049	0.390625
0	0.8329541	0.5527534	0	-9.234338e-18	-1.0102908e-17	0.5890486	0.390625
0	0.8189953	0.57331795	0	-9.2335814e-18	-1.0103415e-17	0.6135923	0.390625
0	0.80450404	0.59355533	0	-9.232906e-18	-1.0103867e-17	0.638136	0.390625
0	0.7894904	0.61344594	0	-9.232319e-18	-1.010426e-17	0.6626797	0.390625
0	0.7739726	0.6329625	0	-9.231833e-18	-1.01045935e-17	0.6872234	0.390625
0	0.75794613	0.65210724	0	-9.231448e-18	-1.0104857e-17	0.7117671	0.390625
0	0.7414403	0.6708421	0	-9.23117e-18	-1.0105049e-17	0.7363108	0.390625
0	0.72446036	0.68916065	0	-9.230999e-18	-1.0105163e-17	0.7608545	0.390625
0	0.7070336	0.7070335	0	-9.230945e-18	-1.0105204e-17	0.7853982	0.390625
0	0.6891615	0.7244596	0	-9.2310015e-18	-1.0105165e-17	0.8099418	0.390625
0	0.6708462	0.74143666	0	-9.231169e-18	-1.01050485e-17	0.83448553	0.390625
0	0.6521024	0.75795025	0	-9.231449e-18	-1.0104858e-17	0.85902923	0.390625
0	0.63295275	0.7739807	0	-9.231834e-18	-1.01045935e-17	0.88357294	0.390625
0	0.6134394	0.7894955	0	-9.232321e-18	-1.0104263e-17	0.90811664	0.390625
0	0.5935555	0.804504	0	-9.232906e-18	-1.0103868e-17	0.93266034	0.390625
0	0.57332045	0.8189935	0	-9.233579e-18	-1.0103415e-17	0.957204	0.390625
0	0.5527553	0.8329526	0	-9.2343375e-18	-1.0102905e-17	0.9817477	0.390625
0	0.53187823	0.84637326	0	-9.2351704e-18	-1.010236e-17	1.0062914	0.390625
0	0.510703	0.8592496	0	-9.236067e-18	-1.0101771e-17	1.030835	0.390625
0	0.4892465	0.8715761	0	-9.23702e-18	-1.01011524e-17	1.0553788	0.390625
0	0.4675337	0.88334244	0	-9.2380184e-18	-1.0100513e-17	1.0799224	0.390625
0	0.44558388	0.894544	0	-9.239055e-18	-1.0099862e-17	1.1044662	0.390625
0	0.4233945	0.9051857	0	-9.240113e-18	-1.0099201e-17	1.1290098	0.390625
0	0.40098807	0.9152605	0	-9.241187e-18	-1.00985386e-17	1.1535536	0.390625
0	0.3784014	0.9247573	0	-9.242265e-18	-1.0097885e-17	1.1780972	0.390625
0	0.35559976	0.93369377	0	-9.243337e-18	-1.00972366e-17	1.2026409	0.390625
0	0.33263958	0.942052	0	-9.24439e-18	-1.0096611e-17	1.2271847	0.390625
0	0.3095171	0.94983673	0	-9.245418e-18	-1.0096009e-17	1.2517283	0.390625
0	0.28625217	0.957045	0	-9.246411e-18	-1.0095433e-17	1.276272	0.390625
0	0.26285324	0.9636777	0	-9.247359e-18	-1.009489e-17	1.3008157	0.390625
0	0.23933144	0.9697345	0	-9.248253e-18	-1.0094381e-17	1.3253593	0.390625
0	0.2156981	0.975215	0	-9.249086e-18	-1.0093914e-17	1.3499031	0.390625
0	0.19197588	0.980117	0	-9.249851e-18	-1.0093486e-17	1.3744467	0.390625
0	0.16816396	0.98444295	0	-9.250543e-18	-1.0093104e-17	1.3989905	0.390625
0	0.14427607	0.988192	0	-9.251153e-18	-1.0092769e-17	1.4235342	0.390625
0	0.12032909	0.9913638	0	-9.251679e-18	-1.0092484e-17	1.4480779	0.390625
0	0.09632855	0.99395883	0	-9.252114e-18	-1.0092248e-17	1.4726216	0.390625
0	0.07228335	0.9959774	0	-9.252457e-18	-1.00920626e-17	1.4971652	0.390625
0	0.048207052	0.9974192	0	-9.252703e-18	-1.009193e-17	1.521709	0.390625
0	0.024110349	0.9982842	0	-9.252852e-18	-1.0091852e-17	1.5462526	0.390625
0	-8.98493e-10	0.99857265	0	-9.252903e-18	-1.0091826e-17	1.5707964	0.390625
0	0.99539286	-3.8059245e-09	0	-1.6926574e-18	-2.5149223e-18	0	0.09765625
0	0.9951546	0.02200186	0	-1.6925811e-18	-2.5149273e-18	0.024543693	0.09765625
0	0.99444336	0.04397341	0	-1.692352e-18	-2.5149481e-18	0.049087387	0.09765625
0	0.99325705	0.06594432	0	-1.6919711e-18	-2.514983e-18	0.07363108	0.09765625
0	0.9915943	0.087915584	0	-1.6914409e-18	-2.5150333e-18	0.09817477	0.09765625
0	0.989451	0.10990388	0	-1.6907633e-18	-2.5151001e-18	0.12271846	0.09765625
0	0.98682594	0.13188407	0	-1.6899407e-18	-2.5151837e-18	0.14726216	0.09765625
0	0.9837084	0.15390897	0	-1.688979e-18	-2.51529e-18	0.17180584	0.09765625
0	0.9801008	0.17591934	0	-1.6878824e-18	-2.5154174e-18	0.19634955	0.09765625
0	0.97599125	0.19795431	0	-1.6866552e-18	-2.5155687e-18	0.22089323	0.09765625
0	0.9713759	0.21999487	0	-1.6853054e-18	-2.5157472e-18	0.24543692	0.09765625
0	0.966239	0.24207471	0	-1.6838397e-18	-2.5159575e-18	0.2699806	0.09765625
0	0.96057487	0.26417536	0	-1.6822669e-18	-2.5162003e-18	0.2945243	0.09765625
0	0.95435506	0.28635463	0	-1.6805968e-18	-2.5164848e-18	0.319068	0.09765625
0	0.9475974	0.3085055	0	-1.6788404e-18	-2.5168025e-18	0.3436117	0.09765625
0	0.9402918	0.33062702	0	-1.6770087e-18	-2.5171547e-18	0.3681554	0.09765625
0	0.93235517	0.35291633	0	-1.6751164e-18	-2.5175658e-18	0.3926991	0.09765625
0	0.9238541	0.3751296	0	-1.673177e-18	-2.5180083e-18	0.41724277	0.09765625
0	0.914699	0.39745253	0	-1.6712073e-18	-2.518505e-18	0.44178647	0.09765625
0	0.90488493	0.4198321	0	-1.6692247e-18	-2.5190497e-18	0.46633017	0.09765625
0	0.8943888	0.44225863	0	-1.6672486e-18	-2.5196393e-18	0.49087384	0.09765625
0	0.88315254	0.46478644	0	-1.6652992e-18	-2.5202764e-18	0.5154175	0.09765625
0	0.8712357	0.48723406	0	-1.6633986e-18	-2.5209334e-18	0.5399612	0.09765625
0	0.85846037	0.50986594	0	-1.6615705e-18	-2.5216361e-18	0.5645049	0.09765625
0	0.84493697	0.532407	0	-1.6598395e-18	-2.5223402e-18	0.5890486	0.09765625
0	0.83058655	0.55492693	0	-1.6582306e-18	-2.5230417e-18	0.6135923	0.09765625
0	0.81546086	0.5772825	0	-1.6567691e-18	-2.5237105e-18	0.638136	0.09765625
0	0.7994091	0.59963	0	-1.6554797e-18	-2.5243457e-18	0.6626797	0.09765625
0	0.7825011	0.6217995	0	-1.6543867e-18	-2.5249124e-18	0.6872234	0.09765625
0	0.7647472	0.6437207	0	-1.6535115e-18	-2.5253855e-18	0.7117671	0.09765625
0	0.74619144	0.66529334	0	-1.6528723e-18	-2.5257418e-18	0.7363108	0.09765625
0	0.72686523	0.68644637	0	-1.6524824e-18	-2.5259625e-18	0.7608545	0.09765625
0	0.70696044	0.70695966	0	-1.6523518e-18	-2.5260384e-18	0.7853982	0.09765625
0	0.6864481	0.72686356	0	-1.6524826e-18	-2.525963e-18	0.8099418	0.09765625
0	0.6652962	0.74618894	0	-1.6528715e-18	-2.5257416e-18	0.83448553	0.09765625
0	0.64372206	0.7647461	0	-1.6535112e-18	-2.5253855e-18	0.85902923	0.09765625
0	0.62180054	0.78250027	0	-1.6543864e-18	-2.524913e-18	0.88357294	0.09765625
0	0.5996337	0.7994065	0	-1.6554792e-18	-2.5243462e-18	0.90811664	0.09765625
0	0.5772835	0.8154602	0	-1.6567684e-18	-2.5237105e-18	0.93266034	0.09765625
0	0.55493075	0.8305842	0	-1.6582301e-18	-2.5230423e-18	0.957204	0.09765625
0	0.53238326	0.8449518	0	-1.6598393e-18	-2.5223384e-18	0.9817477	0.09765625
0	0.50986046	0.8584635	0	-1.6615699e-18	-2.521636e-18	1.0062914	0.09765625
0	0.4872335	0.8712362	0	-1.6633985e-18	-2.5209338e-18	1.030835	0.09765625
0	0.46472716	0.88318294	0	-1.6652985e-18	-2.5202688e-18	1.0553788	0.09765625
0	0.44225886	0.89438874	0	-1.6672484e-18	-2.5196393e-18	1.0799224	0.09765625
0	0.4198322	0.90488493	0	-1.6692247e-18	-2.5190501e-18	1.1044662	0.09765625
0	0.39750555	0.91467685	0	-1.6712073e-18	-2.5185118e-18	1.1290098	0.09765625
0	0.3752011	0.92382604	0	-1.6731769e-18	-2.518017e-18	1.1535536	0.09765625
0	0.35285518	0.9323775	0	-1.6751163e-18	-2.5175587e-18	1.1780972	0.09765625
0	0.33062407	0.9402929	0	-1.6770086e-18	-2.5171544e-18	1.2026409	0.09765625
0	0.3084439	0.94761664	0	-1.6788402e-18	-2.516796e-18	1.2271847	0.09765625
0	0.28630364	0.95436984	0	-1.6805968e-18	-2.5164797e-18	1.2517283	0.09765625
0	0.2642181	0.96056336	0	-1.6822669e-18	-2.5162042e-18	1.276272	0.09765625
0	0.242083	0.966237	0	-1.6838397e-18	-2.5159577e-18	1.3008157	0.09765625
0	0.21999203	0.9713764	0	-1.6853055e-18	-2.515747e-18	1.3253593	0.09765625
0	0.19794713	0.9759927	0	-1.6866553e-18	-2.515568e-18	1.3499031	0.09765625
0	0.17592186	0.98010033	0	-1.6878826e-18	-2.5154167e-18	1.3744467	0.09765625
0	0.15388602	0.9837118	0	-1.6889799e-18	-2.5152887e-18	1.3989905	0.09765625
0	0.13188025	0.98682654	0	-1.6899416e-18	-2.5151837e-18	1.4235342	0.09765625
0	0.10989369	0.989452	0	-1.6907639e-18	-2.5150997e-18	1.4480779	0.09765625
0	0.08791517	0.9915944	0	-1.6914415e-18	-2.5150333e-18	1.4726216	0.09765625
0	0.065943	0.99325705	0	-1.6919717e-18	-2.5149829e-18	1.4971652	0.09765625
0	0.043973316	0.9944432	0	-1.6923523e-18	-2.514948e-18	1.521709	0.09765625
0	0.022008726	0.9951543	0	-1.6925815e-18	-2.5149273e-18	1.5462526	0.09765625
0	-4.4095274e-09	0.9953928	0	-1.6926582e-18	-2.5149223e-18	1.5707964	0.09765625
0	0.99285847	-5.496934e-09	0	1.913868e-19	-6.271298e-19	0	0.024414062
0	0.99273044	0.016078552	0	1.9145205e-19	-6.271092e-19	0.024543693	0.024414062
0	0.9923551	0.032020647	0	1.916483e-19	-6.270492e-19	0.049087387	0.024414062
0	0.99172986	0.04798052	0	1.9197462e-19	-6.26949e-19	0.07363108	0.024414062
0	0.9908527	0.06396954	0	1.9243125e-19	-6.268096e-19	0.09817477	0.024414062
0	0.98972374	0.079963244	0	1.93017e-19	-6.266311e-19	0.12271846	0.024414062
0	0.9883376	0.09600935	0	1.9373152e-19	-6.264155e-19	0.14726216	0.024414062
0	0.9866838	0.1121708	0	1.9457315e-19	-6.261671e-19	0.17180584	0.024414062
0	0.9847594	0.12841792	0	1.9554135e-19	-6.258868e-19	0.19634955	0.024414062
0	0.98258746	0.14455168	0	1.966343e-19	-6.255668e-19	0.22089323	0.024414062
0	0.98011976	0.16090022	0	1.9785009e-19	-6.252247e-19	0.24543692	0.024414062
0	0.9773703	0.17731343	0	1.9918761e-19	-6.2485544e-19	0.2699806	0.024414062
0	0.9743256	0.19383557	0	2.006433e-19	-6.244645e-19	0.2945243	0.024414062
0	0.9709714	0.21049495	0	2.0221524e-19	-6.2405664e-19	0.319068	0.024414062
0	0.9672498	0.2275062	0	2.039001e-19	-6.2365225e-19	0.3436117	0.024414062
0	0.9632826	0.24428159	0	2.0569455e-19	-6.232092e-19	0.3681554	0.024414062
0	0.9589071	0.26147556	0	2.0759417e-19	-6.227831e-19	0.3926991	0.024414062
0	0.95411795	0.27901125	0	2.095944e-19	-6.2237504e-19	0.41724277	0.024414062
0	0.9489544	0.29667884	0	2.1169046e-19	-6.219708e-19	0.44178647	0.024414062
0	0.9433303	0.3147048	0	2.1387498e-19	-6.2159785e-19	0.46633017	0.024414062
0	0.93722606	0.3330657	0	2.1614135e-19	-6.2126005e-19	0.49087384	0.024414062
0	0.9305276	0.35199672	0	2.1848107e-19	-6.2099023e-19	0.5154175	0.024414062
0	0.9232372	0.37137088	0	2.2088356e-19	-6.207826e-19	0.5399612	0.024414062
0	0.91517276	0.3915306	0	2.233362e-19	-6.2068485e-19	0.5645049	0.024414062
0	0.90628546	0.4124226	0	2.2582478e-19	-6.206997e-19	0.5890486	0.024414062
0	0.89640146	0.4342586	0	2.283301e-19	-6.20861e-19	0.6135923	0.024414062
0	0.88501066	0.45785767	0	2.3082868e-19	-6.2127716e-19	0.638136	0.024414062
0	0.87182975	0.4833705	0	2.3328897e-19	-6.219693e-19	0.6626797	0.024414062
0	0.8564576	0.5110443	0	2.356672e-19	-6.2295794e-19	0.6872234	0.024414062
0	0.83732325	0.5428386	0	2.3790069e-19	-6.2443746e-19	0.7117671	0.024414062
0	0.812519	0.5803773	0	2.3988698e-19	-6.2645764e-19	0.7363108	0.024414062
0	0.7743715	0.63151115	0	2.4143567e-19	-6.2929657e-19	0.7608545	0.024414062
0	0.7069057	0.7069035	0	2.4211003e-19	-6.314601e-19	0.7853982	0.024414062
0	0.6315209	0.77436376	0	2.414363e-19	-6.292972e-19	0.8099418	0.024414062
0	0.58037615	0.8125199	0	2.398876e-19	-6.264577e-19	0.83448553	0.024414062
0	0.5422402	0.8376978	0	2.3790112e-19	-6.243696e-19	0.85902923	0.024414062
0	0.51100904	0.8564779	0	2.3566776e-19	-6.229538e-19	0.88357294	0.024414062
0	0.4833708	0.87182957	0	2.3328936e-19	-6.2196936e-19	0.90811664	0.024414062
0	0.4578556	0.8850118	0	2.3082912e-19	-6.212769e-19	0.93266034	0.024414062
0	0.43446818	0.8963041	0	2.2833062e-19	-6.2088694e-19	0.957204	0.024414062
0	0.41248578	0.9062579	0	2.258252e-19	-6.207075e-19	0.9817477	0.024414062
0	0.39129868	0.9152679	0	2.2333654e-19	-6.206572e-19	1.0062914	0.024414062
0	0.37139925	0.92322624	0	2.2088364e-19	-6.207858e-19	1.030835	0.024414062
0	0.35196534	0.93053895	0	2.1848107e-19	-6.2098666e-19	1.0553788	0.024414062
0	0.33311138	0.9372105	0	2.1614142e-19	-6.2126486e-19	1.0799224	0.024414062
0	0.3146977	0.9433327	0	2.1387494e-19	-6.2159707e-19	1.1044662	0.024414062
0	0.29665664	0.94896096	0	2.116902e-19	-6.219687e-19	1.1290098	0.024414062
0	0.2789858	0.95412517	0	2.0959445e-19	-6.223726e-19	1.1535536	0.024414062
0	0.26157182	0.95888174	0	2.0759391e-19	-6.227916e-19	1.1780972	0.024414062
0	0.24428827	0.9632809	0	2.0569406e-19	-6.2320966e-19	1.2026409	0.024414062
0	0.22730142	0.96729624	0	2.0389975e-19	-6.236362e-19	1.2271847	0.024414062
0	0.21049553	0.97097135	0	2.0221461e-19	-6.240567e-19	1.2517283	0.024414062
0	0.19383812	0.974325	0	2.0064282e-19	-6.2446465e-19	1.276272	0.024414062
0	0.17732759	0.9773678	0	1.9918689e-19	-6.248563e-19	1.3008157	0.024414062
0	0.16090746	0.98011863	0	1.9784976e-19	-6.2522503e-19	1.3253593	0.024414062
0	0.14456613	0.98258525	0	1.9663374e-19	-6.2556754e-19	1.3499031	0.024414062
0	0.1282826	0.9847763	0	1.9554073e-19	-6.258806e-19	1.3744467	0.024414062
0	0.11215944	0.98668504	0	1.9457249e-19	-6.2616657e-19	1.3989905	0.024414062
0	0.096008755	0.98833764	0	1.9373061e-19	-6.264155e-19	1.4235342	0.024414062
0	0.07996435	0.98972374	0	1.9301621e-19	-6.2663114e-19	1.4480779	0.024414062
0	0.06395616	0.9908535	0	1.9243041e-19	-6.268093e-19	1.4726216	0.024414062
0	0.04807333	0.9917255	0	1.9197386e-19	-6.2695064e-19	1.4971652	0.024414062
0	0.032024354	0.9923549	0	1.9164743e-19	-6.270492e-19	1.521709	0.024414062
0	0.016083904	0.9927304	0	1.9145128e-19	-6.271093e-19	1.5462526	0.024414062
0	-9.65304e-09	0.9928585	0	1.9138589e-19	-6.271298e-19	1.5707964	0.024414062
0	0.9919094	-8.252313e-09	0	6.615152e-19	-1.5663257e-19	0	0.0061035156
0	0.9918771	0.007879617	0	6.6154783e-19	-1.5661084e-19	0.024543693	0.0061035156
0	0.9917905	0.01545566	0	6.61645e-19	-1.5654489e-19	0.049087387	0.0061035156
0	0.99164677	0.02306565	0	6.6180746e-19	-1.5643472e-19	0.07363108	0.0061035156
0	0.9914398	0.030882884	0	6.620345e-19	-1.5628255e-19	0.09817477	0.0061035156
0	0.9911895	0.038262866	0	6.6232615e-19	-1.5608146e-19	0.12271846	0.0061035156
0	0.9908761	0.045858324	0	6.6268267e-19	-1.5583841e-19	0.14726216	0.0061035156
0	0.9905057	0.053455718	0	6.631037e-19	-1.555513e-19	0.17180584	0.0061035156
0	0.9900783	0.061059266	0	6.635895e-19	-1.5522036e-19	0.19634955	0.0061035156
0	0.989594	0.06866114	0	6.641393e-19	-1.5484552e-19	0.22089323	0.0061035156
0	0.9890473	0.07633631	0	6.647532e-19	-1.54429e-19	0.24543692	0.0061035156
0	0.9884464	0.08396165	0	6.65431e-19	-1.5396786e-19	0.2699806	0.0061035156
0	0.987796	0.09149837	0	6.661722e-19	-1.5346064e-19	0.2945243	0.0061035156
0	0.98707837	0.09914888	0	6.6697734e-19	-1.5291386e-19	0.319068	0.0061035156
0	0.98630536	0.106774844	0	6.6784536e-19	-1.5232347e-19	0.3436117	0.0061035156
0	0.98546124	0.11451705	0	6.6877615e-19	-1.5169518e-19	0.3681554	0.0061035156
0	0.9845783	0.12208688	0	6.6977005e-19	-1.5101778e-19	0.3926991	0.0061035156
0	0.98361933	0.12980431	0	6.7082564e-19	-1.5030464e-19	0.41724277	0.0061035156
0	0.98260057	0.1375231	0	6.7194347e-19	-1.4955024e-19	0.44178647	0.0061035156
0	0.98153615	0.1451447	0	6.731229e-19	-1.4874989e-19	0.46633017	0.0061035156
0	0.9804004	0.15285155	0	6.743633e-19	-1.479128e-19	0.49087384	0.0061035156
0	0.97920376	0.16056398	0	6.7566434e-19	-1.4703553e-19	0.5154175	0.0061035156
0	0.9779435	0.16829784	0	6.7702577e-19	-1.461194e-19	0.5399612	0.0061035156
0	0.97662574	0.17601371	0	6.7844697e-19	-1.451625e-19	0.5645049	0.0061035156
0	0.97523564	0.18379447	0	6.799277e-19	-1.4417033e-19	0.5890486	0.0061035156
0	0.9737837	0.19157633	0	6.814672e-19	-1.4313952e-19	0.6135923	0.0061035156
0	0.97225654	0.19942291	0	6.8306497e-19	-1.4207493e-19	0.638136	0.0061035156
0	0.97061414	0.20752217	0	6.8472047e-19	-1.4099076e-19	0.6626797	0.0061035156
0	0.96892	0.21554631	0	6.8643283e-19	-1.398652e-19	0.6872234	0.0061035156
0	0.96716225	0.22355697	0	6.8820186e-19	-1.387028e-19	0.7117671	0.0061035156
0	0.96545315	0.23106623	0	6.9002647e-19	-1.3746526e-19	0.7363108	0.0061035156
0	0.9634922	0.23938328	0	6.9190634e-19	-1.3625609e-19	0.7608545	0.0061035156
0	0.706882	0.7068771	0	7.1569636e-19	-1.5785941e-19	0.7853982	0.0061035156
0	0.23959091	0.96344244	0	6.919064e-19	-1.3627299e-19	0.8099418	0.0061035156
0	0.2292528	0.9658693	0	6.9002616e-19	-1.3732164e-19	0.83448553	0.0061035156
0	0.22351316	0.96717197	0	6.8820155e-19	-1.3869943e-19	0.85902923	0.0061035156
0	0.21510458	0.96901464	0	6.8643226e-19	-1.398325e-19	0.88357294	0.0061035156
0	0.20758016	0.9706021	0	6.8472e-19	-1.4099491e-19	0.90811664	0.0061035156
0	0.19940577	0.9722598	0	6.830644e-19	-1.420737e-19	0.93266034	0.0061035156
0	0.19157602	0.9737837	0	6.814666e-19	-1.4313951e-19	0.957204	0.0061035156
0	0.18380369	0.975234	0	6.7992716e-19	-1.4417091e-19	0.9817477	0.0061035156
0	0.17601699	0.97662514	0	6.7844656e-19	-1.451627e-19	1.0062914	0.0061035156
0	0.16829076	0.97794473	0	6.770252e-19	-1.4611897e-19	1.030835	0.0061035156
0	0.16058302	0.9792007	0	6.7566377e-19	-1.4703661e-19	1.0553788	0.0061035156
0	0.15287529	0.98039675	0	6.743625e-19	-1.4791406e-19	1.0799224	0.0061035156
0	0.14514498	0.981536	0	6.731222e-19	-1.487499e-19	1.1044662	0.0061035156
0	0.13748394	0.9826059	0	6.7194275e-19	-1.4954837e-19	1.1290098	0.0061035156
0	0.12979528	0.9836205	0	6.70825e-19	-1.5030422e-19	1.1535536	0.0061035156
0	0.122179344	0.9845672	0	6.6976923e-19	-1.5102172e-19	1.1780972	0.0061035156
0	0.11441558	0.9854727	0	6.687755e-19	-1.516911e-19	1.2026409	0.0061035156
0	0.10677814	0.9863049	0	6.6784453e-19	-1.523236e-19	1.2271847	0.0061035156
0	0.099158764	0.98707736	0	6.6697646e-19	-1.529142e-19	1.2517283	0.0061035156
0	0.09160252	0.9877867	0	6.661717e-19	-1.5346399e-19	1.276272	0.0061035156
0	0.08388251	0.9884529	0	6.654301e-19	-1.5396552e-19	1.3008157	0.0061035156
0	0.07626456	0.98905253	0	6.647523e-19	-1.5442709e-19	1.3253593	0.0061035156
0	0.06893735	0.9895753	0	6.6413845e-19	-1.5485223e-19	1.3499031	0.0061035156
0	0.061153617	0.99007255	0	6.635887e-19	-1.5522238e-19	1.3744467	0.0061035156
0	0.053826842	0.99048626	0	6.631032e-19	-1.555583e-19	1.3989905	0.0061035156
0	0.045906387	0.9908739	0	6.6268205e-19	-1.5583916e-19	1.4235342	0.0061035156
0	0.038263455	0.9911895	0	6.623255e-19	-1.5608143e-19	1.4480779	0.0061035156
0	0.030674364	0.9914462	0	6.620337e-19	-1.5628032e-19	1.4726216	0.0061035156
0	0.02325785	0.9916425	0	6.618066e-19	-1.5643628e-19	1.4971652	0.0061035156
0	0.015437439	0.9917907	0	6.6164425e-19	-1.565448e-19	1.521709	0.0061035156
0	0.007892765	0.9918771	0	6.6154695e-19	-1.5661086e-19	1.5462526	0.0061035156
0	-8.957285e-09	0.99190944	0	6.6151443e-19	-1.5663258e-19	1.5707964	0.0061035156
0	0.991644	-1.2021376e-08	0	7.789739e-19	-3.9147663e-20	0	0.0015258789
0	0.9916367	0.003282153	0	7.789844e-19	-3.913876e-20	0.024543693	0.0015258789
0	0.99162805	0.0053233765	0	7.7901616e-19	-3.9110185e-20	0.049087387	0.0015258789
0	0.99161	0.008040166	0	7.7906925e-19	-3.90636e-20	0.07363108	0.0015258789
0	0.9915905	0.010214273	0	7.791434e-19	-3.899658e-20	0.09817477	0.0015258789
0	0.9915633	0.012632366	0	7.792386e-19	-3.8911138e-20	0.12271846	0.0015258789
0	0.99152964	0.0150855575	0	7.79355e-19	-3.8806875e-20	0.14726216	0.0015258789
0	0.9914901	0.017547706	0	7.794925e-19	-3.868376e-20	0.17180584	0.0015258789
0	0.9914387	0.020303244	0	7.7965076e-19	-3.8543877e-20	0.19634955	0.0015258789
0	0.9913956	0.022348512	0	7.7983005e-19	-3.83802e-20	0.22089323	0.0015258789
0	0.9913395	0.024761308	0	7.800301e-19	-3.8200315e-20	0.24543692	0.0015258789
0	0.99127704	0.027194284	0	7.80251e-19	-3.800196e-20	0.2699806	0.0015258789
0	0.991211	0.029555326	0	7.804923e-19	-3.7784315e-20	0.2945243	0.0015258789
0	0.99113804	0.031959705	0	7.8075464e-19	-3.7548613e-20	0.319068	0.0015258789
0	0.9910544	0.03450719	0	7.8103707e-19	-3.729626e-20	0.3436117	0.0015258789
0	0.9909778	0.036686316	0	7.813397e-19	-3.702119e-20	0.3681554	0.0015258789