# t (s)	mx ()	my ()	mz ()	E_total (J)	E_Zeeman (J)	Angle (rad)	Field (T)
0	1	-4.42767e-12	0	-2.5863215e-15	-2.5871999e-15	0	100
0	0.92387944	0.38268334	0	-2.5863213e-15	-2.5871999e-15	0.3926991	100
0	0.7071068	0.7071068	0	-2.5863217e-15	-2.5872003e-15	0.7853982	100
0	0.3826833	0.9238796	0	-2.5863215e-15	-2.5872e-15	1.1780972	100
0	-5.0396243e-13	1	0	-2.5863217e-15	-2.5871999e-15	1.5707964	100
0	-0.38268334	0.9238796	0	-2.5863215e-15	-2.5872e-15	1.9634954	100
0	-0.7071068	0.7071069	0	-2.5863215e-15	-2.5872e-15	2.3561945	100
0	-0.92387956	0.38268334	0	-2.5863213e-15	-2.5871997e-15	2.7488935	100
0	-1	4.049698e-12	0	-2.5863215e-15	-2.5871999e-15	3.1415927	100
0	-0.92387944	-0.38268334	0	-2.5863213e-15	-2.5872e-15	3.5342917	100
0	-0.70710677	-0.7071068	0	-2.5863217e-15	-2.5872e-15	3.9269907	100
0	-0.3826833	-0.9238796	0	-2.5863215e-15	-2.5872e-15	4.3196898	100
0	5.3995975e-14	-1	0	-2.5863215e-15	-2.5871999e-15	4.712389	100
0	0.3826833	-0.9238796	0	-2.5863215e-15	-2.5872e-15	5.105088	100
0	0.70710677	-0.7071068	0	-2.5863217e-15	-2.5872e-15	5.497787	100
0	0.9238796	-0.38268334	0	-2.5863215e-15	-2.5871997e-15	5.8904862	100
0	0.9999997	-1.18071195e-11	0	-1.2927218e-15	-1.2935995e-15	0	50
0	0.92387956	0.38268295	0	-1.2927215e-15	-1.2935997e-15	0.3926991	50
0	0.70710677	0.70710677	0	-1.2927216e-15	-1.2936002e-15	0.7853982	50
0	0.38268298	0.92387956	0	-1.2927216e-15	-1.2935998e-15	1.1780972	50
0	-5.255608e-12	0.9999997	0	-1.2927217e-15	-1.2935995e-15	1.5707964	50
0	-0.38268298	0.9238796	0	-1.2927216e-15	-1.2935998e-15	1.9634954	50
0	-0.70710677	0.70710677	0	-1.2927217e-15	-1.2936002e-15	2.3561945	50
0	-0.92387956	0.38268295	0	-1.2927215e-15	-1.2935997e-15	2.7488935	50
0	-0.9999997	3.4197452e-12	0	-1.2927218e-15	-1.2935996e-15	3.1415927	50
0	-0.92387944	-0.38268295	0	-1.2927215e-15	-1.2935997e-15	3.5342917	50
0	-0.70710677	-0.70710677	0	-1.2927217e-15	-1.2936e-15	3.9269907	50
0	-0.38268298	-0.9238796	0	-1.2927217e-15	-1.2935998e-15	4.3196898	50
0	8.171391e-12	-0.9999997	0	-1.2927216e-15	-1.2935995e-15	4.712389	50
0	0.38268298	-0.9238796	0	-1.2927216e-15	-1.2935998e-15	5.105088	50
0	0.70710677	-0.70710677	0	-1.2927217e-15	-1.2936002e-15	5.497787	50
0	0.92387956	-0.38268295	0	-1.2927215e-15	-1.2935996e-15	5.8904862	50
0	0.9999988	-5.1620153e-11	0	-6.4592207e-16	-6.4679923e-16	0	25
0	0.9238796	0.38268155	0	-6.4592186e-16	-6.4679955e-16	0.3926991	25
0	0.7071066	0.7071066	0	-6.4592144e-16	-6.4679976e-16	0.7853982	25
0	0.38268155	0.92387956	0	-6.4592186e-16	-6.467996e-16	1.1780972	25
0	-2.843788e-11	0.9999988	0	-6.4592207e-16	-6.4679923e-16	1.5707964	25
0	-0.38268155	0.92387944	0	-6.4592186e-16	-6.467996e-16	1.9634954	25
0	-0.7071066	0.7071066	0	-6.4592144e-16	-6.4679976e-16	2.3561945	25
0	-0.92387944	0.38268155	0	-6.4592186e-16	-6.4679955e-16	2.7488935	25
0	-0.99999887	4.938832e-11	0	-6.4592207e-16	-6.4679923e-16	3.1415927	25
0	-0.92387944	-0.38268155	0	-6.4592186e-16	-6.467996e-16	3.5342917	25
0	-0.7071066	-0.7071066	0	-6.4592144e-16	-6.4679976e-16	3.9269907	25
0	-0.38268155	-0.92387956	0	-6.459218e-16	-6.467996e-16	4.3196898	25
0	2.7429956e-11	-0.9999988	0	-6.4592207e-16	-6.4679923e-16	4.712389	25
0	0.38268155	-0.9238796	0	-6.4592186e-16	-6.467996e-16	5.105088	25
0	0.7071066	-0.7071066	0	-6.4592144e-16	-6.4679976e-16	5.497787	25
0	0.92387944	-0.38268155	0	-6.4592186e-16	-6.467996e-16	5.8904862	25
0	0.99999565	-7.631431e-12	0	-3.225228e-16	-3.2339858e-16	0	12.5
0	0.9238797	0.382676	0	-3.2252222e-16	-3.2339909e-16	0.3926991	12.5
0	0.7071061	0.70710605	0	-3.2252166e-16	-3.2339964e-16	0.7853982	12.5
0	0.382676	0.9238797	0	-3.225223e-16	-3.2339914e-16	1.1780972	12.5
0	-3.6861254e-11	0.99999565	0	-3.225228e-16	-3.2339858e-16	1.5707964	12.5
0	-0.382676	0.9238797	0	-3.225223e-16	-3.2339914e-16	1.9634954	12.5
0	-0.7071061	0.7071061	0	-3.225217e-16	-3.2339964e-16	2.3561945	12.5
0	-0.9238797	0.382676	0	-3.2252222e-16	-3.233991e-16	2.7488935	12.5
0	-0.99999565	1.4830895e-11	0	-3.225228e-16	-3.2339858e-16	3.1415927	12.5
0	-0.92387974	-0.382676	0	-3.2252222e-16	-3.233991e-16	3.5342917	12.5
0	-0.7071061	-0.70710605	0	-3.225217e-16	-3.2339964e-16	3.9269907	12.5
0	-0.382676	-0.9238797	0	-3.2252227e-16	-3.2339914e-16	4.3196898	12.5
0	3.729322e-11	-0.99999565	0	-3.225228e-16	-3.2339858e-16	4.712389	12.5
0	0.382676	-0.9238797	0	-3.2252227e-16	-3.2339916e-16	5.105088	12.5
0	0.7071061	-0.70710605	0	-3.2252166e-16	-3.2339967e-16	5.497787	12.5
0	0.92387974	-0.382676	0	-3.2252222e-16	-3.233991e-16	5.8904862	12.5
0	0.9999836	-5.09722e-11	0	-1.6082417e-16	-1.6169735e-16	0	6.25
0	0.9238808	0.38265464	0	-1.608231e-16	-1.6169842e-16	0.3926991	6.25
0	0.7071045	0.7071045	0	-1.6082199e-16	-1.6169945e-16	0.7853982	6.25
0	0.3826547	0.9238807	0	-1.608231e-16	-1.6169842e-16	1.1780972	6.25
0	-7.429846e-11	0.99998367	0	-1.6082419e-16	-1.6169737e-16	1.5707964	6.25
0	-0.3826547	0.9238808	0	-1.6082309e-16	-1.6169842e-16	1.9634954	6.25
0	-0.7071044	0.7071044	0	-1.6082199e-16	-1.6169945e-16	2.3561945	6.25
0	-0.9238808	0.38265464	0	-1.608231e-16	-1.6169843e-16	2.7488935	6.25
0	-0.9999836	5.4715923e-11	0	-1.6082419e-16	-1.6169735e-16	3.1415927	6.25
0	-0.92388076	-0.38265464	0	-1.608231e-16	-1.6169843e-16	3.5342917	6.25
0	-0.7071044	-0.7071045	0	-1.6082199e-16	-1.6169945e-16	3.9269907	6.25
0	-0.3826547	-0.9238807	0	-1.608231e-16	-1.616984e-16	4.3196898	6.25
0	5.4139963e-11	-0.99998367	0	-1.6082419e-16	-1.6169737e-16	4.712389	6.25
0	0.3826547	-0.9238807	0	-1.608231e-16	-1.616984e-16	5.105088	6.25
0	0.7071044	-0.7071044	0	-1.6082199e-16	-1.6169946e-16	5.497787	6.25
0	0.9238808	-0.38265464	0	-1.608231e-16	-1.6169843e-16	5.8904862	6.25
0	0.9999421	-2.0964837e-10	0	-7.9976666e-17	-8.0845324e-17	0	3.125
0	0.9238876	0.38257477	0	-7.9974574e-17	-8.0847257e-17	0.3926991	3.125
0	0.70709956	0.7070996	0	-7.9972464e-17	-8.084918e-17	0.7853982	3.125
0	0.38257468	0.92388767	0	-7.997456e-17	-8.084725e-17	1.1780972	3.125
0	-2.079205e-10	0.9999422	0	-7.9976666e-17	-8.0845324e-17	1.5707964	3.125
0	-0.38257486	0.92388767	0	-7.997457e-17	-8.084725e-17	1.9634954	3.125
0	-0.70709956	0.7070996	0	-7.9972464e-17	-8.084918e-17	2.3561945	3.125
0	-0.92388767	0.3825747	0	-7.997459e-17	-8.0847257e-17	2.7488935	3.125
0	-0.9999421	1.8718604e-10	0	-7.9976666e-17	-8.084532e-17	3.1415927	3.125
0	-0.9238876	-0.38257486	0	-7.997458e-17	-8.0847257e-17	3.5342917	3.125
0	-0.70709956	-0.7070996	0	-7.9972464e-17	-8.0849176e-17	3.9269907	3.125
0	-0.38257468	-0.92388767	0	-7.997457e-17	-8.0847243e-17	4.3196898	3.125
0	2.8625066e-10	-0.9999421	0	-7.9976666e-17	-8.0845324e-17	4.712389	3.125
0	0.38257477	-0.92388767	0	-7.997457e-17	-8.084725e-17	5.105088	3.125
0	0.70709956	-0.7070996	0	-7.9972464e-17	-8.084918e-17	5.497787	3.125
0	0.92388767	-0.3825747	0	-7.997458e-17	-8.0847257e-17	5.8904862	3.125
0	0.99980855	-3.5133382e-10	0	-3.9555913e-17	-4.0417262e-17	0	1.5625
0	0.9239246	0.38228709	0	-3.9552028e-17	-4.042055e-17	0.3926991	1.5625
0	0.70708793	0.707088	0	-3.954812e-17	-4.042393e-17	0.7853982	1.5625
0	0.38228756	0.9239245	0	-3.9552035e-17	-4.0420558e-17	1.1780972	1.5625
0	-3.743721e-10	0.99980855	0	-3.9555913e-17	-4.0417262e-17	1.5707964	1.5625
0	-0.38228709	0.9239247	0	-3.9552035e-17	-4.0420558e-17	1.9634954	1.5625
0	-0.707088	0.707088	0	-3.954812e-17	-4.0423926e-17	2.3561945	1.5625
0	-0.92392445	0.38228765	0	-3.9552035e-17	-4.0420558e-17	2.7488935	1.5625
0	-0.99980855	3.432704e-10	0	-3.9555913e-17	-4.0417266e-17	3.1415927	1.5625
0	-0.9239245	-0.38228744	0	-3.9552038e-17	-4.042056e-17	3.5342917	1.5625
0	-0.70708793	-0.707088	0	-3.954812e-17	-4.0423926e-17	3.9269907	1.5625
0	-0.38228723	-0.9239247	0	-3.9552038e-17	-4.0420558e-17	4.3196898	1.5625
0	4.0547377e-10	-0.99980855	0	-3.955591e-17	-4.0417266e-17	4.712389	1.5625
0	0.38228738	-0.9239246	0	-3.9552038e-17	-4.0420558e-17	5.105088	1.5625
0	0.707088	-0.707088	0	-3.954812e-17	-4.0423926e-17	5.497787	1.5625
0	0.9239246	-0.38228726	0	-3.9552038e-17	-4.042056e-17	5.8904862	1.5625
0	0.999432	-6.5543915e-10	0	-1.9350064e-17	-2.0201021e-17	0	0.78125
0	0.9240952	0.38132128	0	-1.9343318e-17	-2.0205989e-17	0.3926991	0.78125
0	0.7070658	0.7070658	0	-1.9336416e-17	-2.0211331e-17	0.7853982	0.78125
0	0.38132188	0.9240949	0	-1.934332e-17	-2.020599e-17	1.1780972	0.78125
0	-6.4392e-10	0.9994321	0	-1.9350062e-17	-2.0201021e-17	1.5707964	0.78125
0	-0.38132417	0.9240939	0	-1.9343321e-17	-2.0205992e-17	1.9634954	0.78125
0	-0.7070658	0.7070659	0	-1.9336412e-17	-2.0211328e-17	2.3561945	0.78125
0	-0.9240934	0.38132542	0	-1.9343321e-17	-2.0205989e-17	2.7488935	0.78125
0	-0.999432	9.572406e-10	0	-1.9350064e-17	-2.020102e-17	3.1415927	0.78125
0	-0.92409486	-0.38132206	0	-1.9343324e-17	-2.0205992e-17	3.5342917	0.78125
0	-0.7070658	-0.70706576	0	-1.9336412e-17	-2.0211331e-17	3.9269907	0.78125
0	-0.38132164	-0.92409515	0	-1.9343318e-17	-2.020599e-17	4.3196898	0.78125
0	6.715659e-10	-0.999432	0	-1.9350064e-17	-2.0201021e-17	4.712389	0.78125
0	0.38132396	-0.924094	0	-1.9343324e-17	-2.0205992e-17	5.105088	0.78125
0	0.70706576	-0.7070658	0	-1.9336414e-17	-2.0211326e-17	5.497787	0.78125
0	0.92409426	-0.3813235	0	-1.9343322e-17	-2.0205992e-17	5.8904862	0.78125
0	0.99857277	-2.1794215e-09	0	-9.252901e-18	-1.0091825e-17	0	0.390625
0	0.9247616	0.3783904	0	-9.242265e-18	-1.0097883e-17	0.3926991	0.390625
0	0.7070336	0.70703346	0	-9.230945e-18	-1.0105204e-17	0.7853982	0.390625
0	0.3783926	0.9247606	0	-9.242265e-18	-1.0097883e-17	1.1780972	0.390625
0	-1.0344189e-09	0.99857265	0	-9.252902e-18	-1.0091826e-17	1.5707964	0.390625
0	-0.37839526	0.9247597	0	-9.242265e-18	-1.00978834e-17	1.9634954	0.390625
0	-0.7070336	0.7070335	0	-9.230945e-18	-1.0105203e-17	2.3561945	0.390625
0	-0.9247611	0.37839165	0	-9.242266e-18	-1.0097884e-17	2.7488935	0.390625
0	-0.99857277	1.5320458e-09	0	-9.252902e-18	-1.0091825e-17	3.1415927	0.390625
0	-0.924761	-0.37839174	0	-9.242265e-18	-1.0097882e-17	3.5342917	0.390625
0	-0.7070336	-0.70703346	0	-9.230945e-18	-1.0105203e-17	3.9269907	0.390625
0	-0.37839037	-0.92476165	0	-9.242265e-18	-1.0097883e-17	4.3196898	0.390625
0	1.0367227e-09	-0.99857265	0	-9.252903e-18	-1.0091825e-17	4.712389	0.390625
0	0.3783923	-0.92476076	0	-9.242266e-18	-1.0097883e-17	5.105088	0.390625
0	0.7070336	-0.70703346	0	-9.230945e-18	-1.0105204e-17	5.497787	0.390625
0	0.92476255	-0.37838814	0	-9.242265e-18	-1.0097883e-17	5.8904862	0.390625
0	0.9971222	-2.9212541e-09	0	-4.2100168e-18	-5.0385838e-18	0	0.1953125
0	0.9269073	0.3706042	0	-4.195314e-18	-5.0439013e-18	0.3926991	0.1953125
0	0.7069966	0.7069963	0	-4.1784607e-18	-5.0523377e-18	0.7853982	0.1953125
0	0.3706025	0.9269079	0	-4.1953137e-18	-5.0439017e-18	1.1780972	0.1953125
0	-9.79127e-10	0.9971222	0	-4.2100168e-18	-5.0385833e-18	1.5707964	0.1953125
0	-0.37060153	0.9269083	0	-4.1953137e-18	-5.0439013e-18	1.9634954	0.1953125
0	-0.7069967	0.7069964	0	-4.1784603e-18	-5.052337e-18	2.3561945	0.1953125
0	-0.9269079	0.37060267	0	-4.195314e-18	-5.0439017e-18	2.7488935	0.1953125
0	-0.9971222	3.257613e-09	0	-4.2100164e-18	-5.0385838e-18	3.1415927	0.1953125
0	-0.92690825	-0.37060162	0	-4.1953145e-18	-5.0439013e-18	3.5342917	0.1953125
0	-0.7069967	-0.7069964	0	-4.1784607e-18	-5.0523373e-18	3.9269907	0.1953125
0	-0.37062192	-0.9269003	0	-4.1953137e-18	-5.0439038e-18	4.3196898	0.1953125
0	3.6124028e-09	-0.99712235	0	-4.210017e-18	-5.0385833e-18	4.712389	0.1953125
0	0.37060082	-0.92690855	0	-4.1953145e-18	-5.043902e-18	5.105088	0.1953125
0	0.7069965	-0.7069962	0	-4.178461e-18	-5.052337e-18	5.497787	0.1953125
0	0.92690825	-0.37060148	0	-4.195314e-18	-5.0439013e-18	5.8904862	0.1953125
0	0.99539286	-5.165183e-09	0	-1.6926575e-18	-2.5149223e-18	0	0.09765625
0	0.9323771	0.3528561	0	-1.6751161e-18	-2.5175583e-18	0.3926991	0.09765625
0	0.70696026	0.70695937	0	-1.6523518e-18	-2.5260375e-18	0.7853982	0.09765625
0	0.35285574	0.9323772	0	-1.6751163e-18	-2.5175591e-18	1.1780972	0.09765625
0	-2.8337088e-09	0.9953928	0	-1.692658e-18	-2.5149223e-18	1.5707964	0.09765625
0	-0.3528543	0.9323779	0	-1.6751162e-18	-2.5175585e-18	1.9634954	0.09765625
0	-0.70696044	0.70695966	0	-1.6523519e-18	-2.5260384e-18	2.3561945	0.09765625
0	-0.9323567	0.35291207	0	-1.6751163e-18	-2.5175651e-18	2.7488935	0.09765625
0	-0.99539286	2.7000868e-09	0	-1.6926576e-18	-2.5149225e-18	3.1415927	0.09765625
0	-0.9323772	-0.35285595	0	-1.6751161e-18	-2.5175587e-18	3.5342917	0.09765625
0	-0.7069605	-0.7069596	0	-1.6523518e-18	-2.5260382e-18	3.9269907	0.09765625
0	-0.3528549	-0.9323776	0	-1.6751161e-18	-2.517559e-18	4.3196898	0.09765625
0	3.1193834e-09	-0.99539274	0	-1.6926579e-18	-2.5149219e-18	4.712389	0.09765625
0	0.3529172	-0.93235487	0	-1.6751162e-18	-2.5175658e-18	5.105088	0.09765625
0	0.70696044	-0.70695966	0	-1.6523519e-18	-2.5260382e-18	5.497787	0.09765625
0	0.9323778	-0.3528543	0	-1.6751164e-18	-2.5175587e-18	5.8904862	0.09765625
0	0.9938911	-5.4923266e-09	0	-4.3608057e-19	-1.2555641e-18	0	0.048828125
0	0.94316053	0.3181754	0	-4.1795446e-19	-1.254599e-18	0.3926991	0.048828125
0	0.7069288	0.706927	0	-3.893601e-19	-1.2629619e-18	0.7853982	0.048828125
0	0.31817442	0.943161	0	-4.1795461e-19	-1.2545989e-18	1.1780972	0.048828125
0	-3.045661e-09	0.99389136	0	-4.3608155e-19	-1.2555643e-18	1.5707964	0.048828125
0	-0.31818807	0.9431565	0	-4.1795464e-19	-1.2546003e-18	1.9634954	0.048828125
0	-0.7069291	0.70692754	0	-3.8936025e-19	-1.2629626e-18	2.3561945	0.048828125
0	-0.94315743	0.31818503	0	-4.1795438e-19	-1.2545998e-18	2.7488935	0.048828125
0	-0.9938911	7.3169586e-09	0	-4.3608057e-19	-1.2555641e-18	3.1415927	0.048828125
0	-0.943165	-0.31816152	0	-4.179546e-19	-1.2545976e-18	3.5342917	0.048828125
0	-0.7069289	-0.70692706	0	-3.8936007e-19	-1.2629619e-18	3.9269907	0.048828125
0	-0.31819105	-0.9431555	0	-4.1795456e-19	-1.2546007e-18	4.3196898	0.048828125
0	2.0365842e-09	-0.9938908	0	-4.360813e-19	-1.2555636e-18	4.712389	0.048828125
0	0.3181596	-0.94316566	0	-4.1795464e-19	-1.2545973e-18	5.105088	0.048828125
0	0.7069288	-0.70692706	0	-3.893602e-19	-1.2629618e-18	5.497787	0.048828125
0	0.94315684	-0.31818685	0	-4.1795464e-19	-1.2546001e-18	5.8904862	0.048828125
0	0.99285847	-9.560887e-09	0	1.9138681e-19	-6.271298e-19	0	0.024414062
0	0.95887923	0.26158184	0	2.0759434e-19	-6.2279245e-19	0.3926991	0.024414062
0	0.70690554	0.70690244	0	2.4211008e-19	-6.314595e-19	0.7853982	0.024414062
0	0.2616681	0.95885664	0	2.0759391e-19	-6.2280015e-19	1.1780972	0.024414062
0	-4.257475e-09	0.99285865	0	1.9138592e-19	-6.271298e-19	1.5707964	0.024414062
0	-0.2614896	0.9589034	0	2.075938e-19	-6.2278433e-19	1.9634954	0.024414062
0	-0.7069055	0.70690256	0	2.421101e-19	-6.3145955e-19	2.3561945	0.024414062
0	-0.9588977	0.26151133	0	2.0759407e-19	-6.2278635e-19	2.7488935	0.024414062
0	-0.99285877	1.0431735e-08	0	1.9138673e-19	-6.271299e-19	3.1415927	0.024414062
0	-0.95888126	-0.2615739	0	2.075941e-19	-6.227918e-19	3.5342917	0.024414062
0	-0.70690596	-0.7069032	0	2.421101e-19	-6.3145996e-19	3.9269907	0.024414062
0	-0.26151553	-0.9588966	0	2.0759385e-19	-6.2278666e-19	4.3196898	0.024414062
0	7.473619e-09	-0.99285865	0	1.9138597e-19	-6.271298e-19	4.712389	0.024414062
0	0.26158857	-0.9588775	0	2.0759387e-19	-6.227931e-19	5.105088	0.024414062
0	0.7069056	-0.7069024	0	2.4211018e-19	-6.314595e-19	5.497787	0.024414062
0	0.9589095	-0.26146635	0	2.0759408e-19	-6.227823e-19	5.8904862	0.024414062
0	0.9922452	-1.2753993e-08	0	5.04856e-19	-3.1337117e-19	0	0.012207031
0	0.9744303	0.1900356	0	5.172919e-19	-3.0728677e-19	0.3926991	0.012207031
0	0.7068907	0.7068863	0	5.578362e-19	-3.1572282e-19	0.7853982	0.012207031
0	0.1900384	0.9744298	0	5.1729146e-19	-3.0728692e-19	1.1780972	0.012207031
0	-5.7641785e-09	0.9922452	0	5.048553e-19	-3.1337117e-19	1.5707964	0.012207031
0	-0.19003153	0.974431	0	5.172914e-19	-3.0728648e-19	1.9634954	0.012207031
0	-0.7068904	0.7068866	0	5.5783603e-19	-3.1572287e-19	2.3561945	0.012207031
0	-0.9744286	0.19004472	0	5.1729203e-19	-3.0728736e-19	2.7488935	0.012207031
0	-0.9922451	7.644102e-09	0	5.0485604e-19	-3.1337117e-19	3.1415927	0.012207031
0	-0.97443104	-0.19003133	0	5.1729187e-19	-3.0728648e-19	3.5342917	0.012207031
0	-0.7068901	-0.70688707	0	5.5783613e-19	-3.1572285e-19	3.9269907	0.012207031
0	-0.19003807	-0.9744298	0	5.172914e-19	-3.072869e-19	4.3196898	0.012207031
0	6.639633e-09	-0.9922452	0	5.048553e-19	-3.1337117e-19	4.712389	0.012207031
0	0.1900461	-0.97442836	0	5.1729146e-19	-3.0728746e-19	5.105088	0.012207031
0	0.7068907	-0.7068864	0	5.578361e-19	-3.1572285e-19	5.497787	0.012207031
0	0.9744294	-0.19004054	0	5.1729203e-19	-3.0728708e-19	5.8904862	0.012207031
0	0.99190944	-8.620925e-09	0	6.615152e-19	-1.566326e-19	0	0.0061035156
0	0.9845805	0.12206875	0	6.6976974e-19	-1.5101698e-19	0.3926991	0.0061035156
0	0.706882	0.7068771	0	7.156964e-19	-1.578594e-19	0.7853982	0.0061035156
0	0.12205122	0.9845826	0	6.697692e-19	-1.5101622e-19	1.1780972	0.0061035156
0	-4.4694266e-09	0.99190927	0	6.6151443e-19	-1.5663256e-19	1.5707964	0.0061035156
0	-0.12210702	0.984576	0	6.697691e-19	-1.510186e-19	1.9634954	0.0061035156
0	-0.70688206	0.706877	0	7.156964e-19	-1.5785942e-19	2.3561945	0.0061035156
0	-0.984582	0.12205568	0	6.6976995e-19	-1.5101643e-19	2.7488935	0.0061035156
0	-0.99190956	1.1588257e-08	0	6.615152e-19	-1.5663258e-19	3.1415927	0.0061035156
0	-0.9845739	-0.122123264	0	6.697699e-19	-1.510193e-19	3.5342917	0.0061035156
0	-0.70688206	-0.706877	0	7.156964e-19	-1.5785941e-19	3.9269907	0.0061035156
0	-0.12207351	-0.98457986	0	6.697691e-19	-1.5101718e-19	4.3196898	0.0061035156
0	5.0499915e-09	-0.99190944	0	6.6151433e-19	-1.566326e-19	4.712389	0.0061035156
0	0.1221492	-0.98457074	0	6.6976923e-19	-1.5102043e-19	5.105088	0.0061035156
0	0.706882	-0.7068771	0	7.1569636e-19	-1.578594e-19	5.497787	0.0061035156
0	0.9845838	-0.12204071	0	6.6976964e-19	-1.5101575e-19	5.8904862	0.0061035156
0	0.99173385	-1.2500572e-08	0	7.3982434e-19	-7.830242e-20	0	0.0030517578
0	0.9892059	0.071666494	0	7.4471624e-19	-7.432299e-20	0.3926991	0.0030517578
0	0.7068768	0.7068726	0	7.946257e-19	-7.892917e-20	0.7853982	0.0030517578
0	0.071486674	0.98921835	0	7.447153e-19	-7.4318475e-20	1.1780972	0.0030517578
0	-6.8055086e-09	0.9917341	0	7.398236e-19	-7.830244e-20	1.5707964	0.0030517578
0	-0.071183056	0.9892395	0	7.447152e-19	-7.431084e-20	1.9634954	0.0030517578
0	-0.70687747	0.70687187	0	7.946257e-19	-7.892917e-20	2.3561945	0.0030517578
0	-0.98923975	0.0711804	0	7.4471603e-19	-7.431077e-20	2.7488935	0.0030517578
0	-0.99173373	5.8609393e-09	0	7.3982424e-19	-7.8302416e-20	3.1415927	0.0030517578
0	-0.98923975	-0.071180865	0	7.447162e-19	-7.4310804e-20	3.5342917	0.0030517578
0	-0.7068772	-0.7068721	0	7.946258e-19	-7.892917e-20	3.9269907	0.0030517578
0	-0.0711816	-0.9892397	0	7.447152e-19	-7.431081e-20	4.3196898	0.0030517578
0	3.5018188e-10	-0.9917341	0	7.398236e-19	-7.830245e-20	4.712389	0.0030517578
0	0.071187176	-0.98923934	0	7.4471515e-19	-7.431095e-20	5.105088	0.0030517578
0	0.7068775	-0.70687187	0	7.946256e-19	-7.892916e-20	5.497787	0.0030517578
0	0.9892342	-0.07126105	0	7.44716e-19	-7.431283e-20	5.8904862	0.0030517578
0	0.99164397	-9.196882e-09	0	7.7897387e-19	-3.9147663e-20	0	0.0015258789
0	0.99089223	0.038976964	0	7.8166247e-19	-3.672915e-20	0.3926991	0.0015258789
0	0.70687515	0.70686907	0	8.3409026e-19	-3.9464435e-20	0.7853982	0.0015258789
0	0.038973484	0.9908924	0	7.816616e-19	-3.67291e-20	1.1780972	0.0015258789
0	-4.3680584e-09	0.99164057	0	7.78973e-19	-3.9147528e-20	1.5707964	0.0015258789
0	-0.039018493	0.9908907	0	7.8166154e-19	-3.6729724e-20	1.9634954	0.0015258789
0	-0.70687515	0.7068692	0	8.3409016e-19	-3.9464435e-20	2.3561945	0.0015258789
0	-0.9908925	0.03897305	0	7.8166236e-19	-3.672909e-20	2.7488935	0.0015258789
0	-0.991644	1.4076391e-08	0	7.7897387e-19	-3.9147663e-20	3.1415927	0.0015258789
0	-0.9908905	-0.03902266	0	7.8166247e-19	-3.6729782e-20	3.5342917	0.0015258789
0	-0.7068749	-0.7068694	0	8.3409005e-19	-3.9464445e-20	3.9269907	0.0015258789
0	-0.03897395	-0.9908924	0	7.816616e-19	-3.6729107e-20	4.3196898	0.0015258789
0	8.800624e-09	-0.99164397	0	7.78973e-19	-3.914766e-20	4.712389	0.0015258789
0	0.03897777	-0.99089223	0	7.816617e-19	-3.672916e-20	5.105088	0.0015258789
0	0.70687425	-0.7068702	0	8.3409005e-19	-3.9464445e-20	5.497787	0.0015258789
0	0.9908921	-0.038979694	0	7.816624e-19	-3.6729184e-20	5.8904862	0.0015258789
