# t (s)	mx ()	my ()	mz ()	E_total (J)	E_Zeeman (J)	E_custom (J)	Angle_bias (rad)	Field_bias (T)	Field_ext (T)	Angle_ext (rad)
0	0.9994482	0.0027370623	0	1.4933403e-20	-8.842992e-22	-3.8239032e-19	0	0.1	0.0003	1.1780972
0	0.9990891	0.02694857	0	-3.6723094e-19	-9.353612e-22	-7.6450726e-19	0.024543693	0.1	0.0003	1.1780972
0	0.9981443	0.051144764	0	-7.4867533e-19	-9.858759e-22	-1.1459108e-18	0.049087387	0.1	0.0003	1.1780972
0	0.9966144	0.07531446	0	-1.128961e-18	-1.03582e-21	-1.5261619e-18	0.07363108	0.1	0.0003	1.1780972
0	0.99449927	0.09944694	0	-1.507651e-18	-1.0851709e-21	-1.9048239e-18	0.09817477	0.1	0.0003	1.1780972
0	0.99179983	0.12352813	0	-1.884311e-18	-1.1338993e-21	-2.2814617e-18	0.12271846	0.1	0.0003	1.1780972
0	0.98851657	0.14754757	0	-2.2585093e-18	-1.1819835e-21	-2.6556441e-18	0.14726216	0.1	0.0003	1.1780972
0	0.9846499	0.1714952	0	-2.6298173e-18	-1.2294026e-21	-3.0269417e-18	0.17180584	0.1	0.0003	1.1780972
0	0.9802009	0.19535695	0	-2.9978115e-18	-1.2761275e-21	-3.3949312e-18	0.19634955	0.1	0.0003	1.1780972
0	0.9751688	0.21912847	0	-3.3620667e-18	-1.3221483e-21	-3.759187e-18	0.22089323	0.1	0.0003	1.1780972
0	0.96955824	0.24278162	0	-3.722182e-18	-1.3674096e-21	-4.119307e-18	0.24543692	0.1	0.0003	1.1780972
0	0.96336776	0.26631588	0	-4.07774e-18	-1.4119091e-21	-4.4748742e-18	0.2699806	0.1	0.0003	1.1780972
0	0.956601	0.28971124	0	-4.4283495e-18	-1.4556071e-21	-4.825497e-18	0.2945243	0.1	0.0003	1.1780972
0	0.94925916	0.31295788	0	-4.7736155e-18	-1.4984838e-21	-5.1707796e-18	0.319068	0.1	0.0003	1.1780972
0	0.94134414	0.33604318	0	-5.1131553e-18	-1.5405145e-21	-5.510339e-18	0.3436117	0.1	0.0003	1.1780972
0	0.9328583	0.35895345	0	-5.446599e-18	-1.5816721e-21	-5.843805e-18	0.3681554	0.1	0.0003	1.1780972
0	0.92380494	0.3816747	0	-5.7735863e-18	-1.6219297e-21	-6.1708158e-18	0.3926991	0.1	0.0003	1.1780972
0	0.9141882	0.40419054	0	-6.093777e-18	-1.6612565e-21	-6.4910314e-18	0.41724277	0.1	0.0003	1.1780972
0	0.90400976	0.4264922	0	-6.4068232e-18	-1.6996348e-21	-6.804103e-18	0.44178647	0.1	0.0003	1.1780972
0	0.8932758	0.44856006	0	-6.712423e-18	-1.7370286e-21	-7.109728e-18	0.46633017	0.1	0.0003	1.1780972
0	0.88198775	0.47038704	0	-7.010248e-18	-1.7734243e-21	-7.407578e-18	0.49087384	0.1	0.0003	1.1780972
0	0.8701544	0.4919506	0	-7.300043e-18	-1.8087817e-21	-7.697397e-18	0.5154175	0.1	0.0003	1.1780972
0	0.85777736	0.5132437	0	-7.58151e-18	-1.843087e-21	-7.978886e-18	0.5399612	0.1	0.0003	1.1780972
0	0.8448701	0.5342391	0	-7.854465e-18	-1.876295e-21	-8.251861e-18	0.5645049	0.1	0.0003	1.1780972
0	0.8314323	0.5549346	0	-8.118621e-18	-1.9084e-21	-8.5160345e-18	0.5890486	0.1	0.0003	1.1780972
0	0.81747496	0.57530874	0	-8.373816e-18	-1.9393665e-21	-8.771242e-18	0.6135923	0.1	0.0003	1.1780972
0	0.80300903	0.59534365	0	-8.619897e-18	-1.9691663e-21	-9.0173324e-18	0.638136	0.1	0.0003	1.1780972
0	0.7880383	0.6150314	0	-8.856669e-18	-1.9977854e-21	-9.254111e-18	0.6626797	0.1	0.0003	1.1780972
0	0.77259594	0.6343281	0	-9.08425e-18	-2.0251603e-21	-9.481692e-18	0.6872234	0.1	0.0003	1.1780972
0	0.75665486	0.6532664	0	-9.302172e-18	-2.051336e-21	-9.699611e-18	0.7117671	0.1	0.0003	1.1780972
0	0.7402396	0.6718138	0	-9.510506e-18	-2.0762657e-21	-9.907936e-18	0.7363108	0.1	0.0003	1.1780972
0	0.72336686	0.68995047	0	-9.709268e-18	-2.0999218e-21	-1.0106685e-17	0.7608545	0.1	0.0003	1.1780972
0	0.7060483	0.7076639	0	-9.8984485e-18	-2.1222874e-21	-1.0295845e-17	0.7853982	0.1	0.0003	1.1780972
0	0.688295	0.7249421	0	-1.00780534e-17	-2.143348e-21	-1.0475425e-17	0.8099418	0.1	0.0003	1.1780972
0	0.67011863	0.74177426	0	-1.0248111e-17	-2.1630898e-21	-1.0645453e-17	0.83448553	0.1	0.0003	1.1780972
0	0.65154207	0.7581398	0	-1.0408815e-17	-2.1814895e-21	-1.0806122e-17	0.85902923	0.1	0.0003	1.1780972
0	0.632572	0.774034	0	-1.0560186e-17	-2.1985433e-21	-1.0957453e-17	0.88357294	0.1	0.0003	1.1780972
0	0.613221	0.78944737	0	-1.0702335e-17	-2.2142421e-21	-1.1099557e-17	0.90811664	0.1	0.0003	1.1780972
0	0.59350425	0.8043688	0	-1.0835425e-17	-2.2285756e-21	-1.1232598e-17	0.93266034	0.1	0.0003	1.1780972
0	0.5734415	0.8187852	0	-1.0959703e-17	-2.2415328e-21	-1.1356823e-17	0.957204	0.1	0.0003	1.1780972
0	0.5530466	0.8326886	0	-1.1075363e-17	-2.2531095e-21	-1.1472427e-17	0.9817477	0.1	0.0003	1.1780972
0	0.5323348	0.8460706	0	-1.1182633e-17	-2.2633017e-21	-1.1579638e-17	1.0062914	0.1	0.0003	1.1780972
0	0.511321	0.8589241	0	-1.1281764e-17	-2.2721068e-21	-1.1678707e-17	1.030835	0.1	0.0003	1.1780972
0	0.4900171	0.87124383	0	-1.1372978e-17	-2.2795242e-21	-1.1769856e-17	1.0553788	0.1	0.0003	1.1780972
0	0.4684438	0.8830205	0	-1.1456634e-17	-2.2855521e-21	-1.1853447e-17	1.0799224	0.1	0.0003	1.1780972
0	0.4466098	0.89425176	0	-1.1532945e-17	-2.2901935e-21	-1.1929692e-17	1.1044662	0.1	0.0003	1.1780972
0	0.42453566	0.9049294	0	-1.1602309e-17	-2.2934493e-21	-1.199899e-17	1.1290098	0.1	0.0003	1.1780972
0	0.40223336	0.91505027	0	-1.16650135e-17	-2.2953232e-21	-1.2061628e-17	1.1535536	0.1	0.0003	1.1780972
0	0.37971723	0.92461056	0	-1.17213925e-17	-2.2958192e-21	-1.2117942e-17	1.1780972	0.1	0.0003	1.1780972
0	0.3570025	0.933606	0	-1.177181e-17	-2.2949421e-21	-1.2168297e-17	1.2026409	0.1	0.0003	1.1780972
0	0.3340978	0.9420356	0	-1.1816542e-17	-2.2926973e-21	-1.22129685e-17	1.2271847	0.1	0.0003	1.1780972
0	0.31102052	0.94989514	0	-1.1856004e-17	-2.289091e-21	-1.2252373e-17	1.2517283	0.1	0.0003	1.1780972
0	0.2877869	0.9571812	0	-1.1890607e-17	-2.2841306e-21	-1.2286922e-17	1.276272	0.1	0.0003	1.1780972
0	0.2644033	0.96389395	0	-1.1920625e-17	-2.2778216e-21	-1.2316889e-17	1.3008157	0.1	0.0003	1.1780972
0	0.24088833	0.9700299	0	-1.194652e-17	-2.2701734e-21	-1.23427375e-17	1.3253593	0.1	0.0003	1.1780972
0	0.21725285	0.97558796	0	-1.1968645e-17	-2.2611927e-21	-1.23648215e-17	1.3499031	0.1	0.0003	1.1780972
0	0.19351141	0.9805665	0	-1.198742e-17	-2.2508893e-21	-1.2383562e-17	1.3744467	0.1	0.0003	1.1780972
0	0.16967349	0.9849651	0	-1.2003191e-17	-2.2392704e-21	-1.2399303e-17	1.3989905	0.1	0.0003	1.1780972
0	0.1457516	0.98878276	0	-1.2016358e-17	-2.226345e-21	-1.2412446e-17	1.4235342	0.1	0.0003	1.1780972
0	0.1217577	0.9920186	0	-1.2027308e-17	-2.2121213e-21	-1.24233785e-17	1.4480779	0.1	0.0003	1.1780972
0	0.0977045	0.9946719	0	-1.2036455e-17	-2.1966094e-21	-1.2432514e-17	1.4726216	0.1	0.0003	1.1780972
0	0.07360544	0.996742	0	-1.2044221e-17	-2.1798198e-21	-1.2440277e-17	1.4971652	0.1	0.0003	1.1780972
0	0.0494648	0.9982292	0	-1.205089e-17	-2.1617566e-21	-1.2446948e-17	1.521709	0.1	0.0003	1.1780972
0	0.025305169	0.9991323	0	-1.2057029e-17	-2.1424368e-21	-1.2453098e-17	1.5462526	0.1	0.0003	1.1780972
0	0.0011291886	0.9994515	0	-1.20629014e-17	-2.1218647e-21	-1.2458988e-17	1.5707964	0.1	0.0003	1.1780972
0	-0.023047227	0.99918675	0	-1.2068972e-17	-2.1000522e-21	-1.24650824e-17	1.59534	0.1	0.0003	1.1780972
0	-0.047214244	0.998338	0	-1.2075614e-17	-2.077009e-21	-1.2471757e-17	1.6198837	0.1	0.0003	1.1780972
0	-0.07136538	0.9969047	0	-1.2083148e-17	-2.052739e-21	-1.247933e-17	1.6444274	0.1	0.0003	1.1780972
0	-0.09545921	0.99488956	0	-1.2092433e-17	-2.027285e-21	-1.24886596e-17	1.6689711	0.1	0.0003	1.1780972
0	-0.119523674	0.9922898	0	-1.2103249e-17	-2.0006163e-21	-1.2499528e-17	1.6935148	0.1	0.0003	1.1780972
0	-0.14353001	0.98910725	0	-1.2116255e-17	-1.9727613e-21	-1.2512594e-17	1.7180585	0.1	0.0003	1.1780972
0	-0.16746718	0.9853421	0	-1.2131832e-17	-1.9437317e-21	-1.2528236e-17	1.7426022	0.1	0.0003	1.1780972
0	-0.19132254	0.98099536	0	-1.2150378e-17	-1.9135396e-21	-1.2546853e-17	1.7671459	0.1	0.0003	1.1780972
0	-0.21508509	0.9760674	0	-1.2172263e-17	-1.8821956e-21	-1.2568815e-17	1.7916895	0.1	0.0003	1.1780972
0	-0.23874182	0.9705596	0	-1.2197882e-17	-1.849714e-21	-1.25945155e-17	1.8162333	0.1	0.0003	1.1780972
0	-0.2622828	0.96447223	0	-1.22275765e-17	-1.8161043e-21	-1.26242965e-17	1.8407769	0.1	0.0003	1.1780972
0	-0.28569135	0.9578079	0	-1.22617805e-17	-1.7813868e-21	-1.2658592e-17	1.8653207	0.1	0.0003	1.1780972
0	-0.308957	0.9505673	0	-1.2300831e-17	-1.745572e-21	-1.2697738e-17	1.8898643	0.1	0.0003	1.1780972
0	-0.33206537	0.942753	0	-1.2345109e-17	-1.708678e-21	-1.2742114e-17	1.914408	0.1	0.0003	1.1780972
0	-0.3550032	0.93436694	0	-1.2394974e-17	-1.6707211e-21	-1.2792079e-17	1.9389517	0.1	0.0003	1.1780972
0	-0.37775475	0.925413	0	-1.2450805e-17	-1.6317223e-21	-1.2848014e-17	1.9634954	0.1	0.0003	1.1780972
0	-0.4003078	0.91589326	0	-1.2512922e-17	-1.5916973e-21	-1.2910235e-17	1.9880391	0.1	0.0003	1.1780972
0	-0.4226519	0.90580976	0	-1.2581607e-17	-1.5506598e-21	-1.2979025e-17	2.0125828	0.1	0.0003	1.1780972
0	-0.44476938	0.8951676	0	-1.265723e-17	-1.5086361e-21	-1.3054753e-17	2.0371265	0.1	0.0003	1.1780972
0	-0.466644	0.883972	0	-1.2740126e-17	-1.4656517e-21	-1.3137753e-17	2.06167	0.1	0.0003	1.1780972
0	-0.4882629	0.87222725	0	-1.2830569e-17	-1.4217263e-21	-1.32283e-17	2.0862138	0.1	0.0003	1.1780972
0	-0.5096152	0.8599363	0	-1.2928789e-17	-1.3768763e-21	-1.3326622e-17	2.1107576	0.1	0.0003	1.1780972
0	-0.53068054	0.84710836	0	-1.3035124e-17	-1.3311386e-21	-1.3433057e-17	2.1353014	0.1	0.0003	1.1780972
0	-0.5514427	0.8337507	0	-1.314984e-17	-1.284544e-21	-1.35478685e-17	2.1598449	0.1	0.0003	1.1780972
0	-0.5718829	0.81987375	0	-1.3273213e-17	-1.2371301e-21	-1.3671334e-17	2.1843886	0.1	0.0003	1.1780972
0	-0.5920034	0.8054733	0	-1.3405235e-17	-1.1888866e-21	-1.3803445e-17	2.2089324	0.1	0.0003	1.1780972
0	-0.6117702	0.7905715	0	-1.3546329e-17	-1.1398895e-21	-1.3944624e-17	2.233476	0.1	0.0003	1.1780972
0	-0.631176	0.7751722	0	-1.3696571e-17	-1.0901547e-21	-1.4094944e-17	2.2580197	0.1	0.0003	1.1780972
0	-0.6502053	0.7592859	0	-1.3856106e-17	-1.0397171e-21	-1.4254554e-17	2.2825634	0.1	0.0003	1.1780972
0	-0.6688413	0.7429257	0	-1.4025076e-17	-9.886195e-22	-1.4423591e-17	2.3071072	0.1	0.0003	1.1780972
0	-0.687069	0.7261038	0	-1.4203578e-17	-9.369012e-22	-1.4602156e-17	2.3316507	0.1	0.0003	1.1780972
0	-0.7048816	0.7088256	0	-1.4391594e-17	-8.845792e-22	-1.4790228e-17	2.3561945	0.1	0.0003	1.1780972
0	-0.7222573	0.6911117	0	-1.4589248e-17	-8.3171693e-22	-1.4987932e-17	2.3807383	0.1	0.0003	1.1780972
0	-0.7391871	0.6729714	0	-1.4796493e-17	-7.783417e-22	-1.5195222e-17	2.4052818	0.1	0.0003	1.1780972
0	-0.75565994	0.6544169	0	-1.5013298e-17	-7.2448915e-22	-1.5412066e-17	2.4298255	0.1	0.0003	1.1780972
0	-0.77166307	0.6354627	0	-1.5239613e-17	-6.7020123e-22	-1.5638412e-17	2.4543693	0.1	0.0003	1.1780972
0	-0.78717744	0.6161329	0	-1.5475431e-17	-6.155462e-22	-1.5874256e-17	2.478913	0.1	0.0003	1.1780972
0	-0.8022014	0.5964315	0	-1.5720548e-17	-5.6053326e-22	-1.6119394e-17	2.5034566	0.1	0.0003	1.1780972
0	-0.81672436	0.57637405	0	-1.5974838e-17	-5.052053e-22	-1.63737e-17	2.5280004	0.1	0.0003	1.1780972
0	-0.83073205	0.5559823	0	-1.6238171e-17	-4.4962073e-22	-1.6637044e-17	2.552544	0.1	0.0003	1.1780972
0	-0.84422106	0.5352645	0	-1.651031e-17	-3.9380035e-22	-1.6909191e-17	2.5770876	0.1	0.0003	1.1780972
0	-0.85718054	0.51423997	0	-1.6791067e-17	-3.3779446e-22	-1.718995e-17	2.6016314	0.1	0.0003	1.1780972
0	-0.8695945	0.49293986	0	-1.708026e-17	-2.8168335e-22	-1.7479144e-17	2.6261752	0.1	0.0003	1.1780972
0	-0.8814758	0.471346	0	-1.7377481e-17	-2.2541704e-22	-1.7776363e-17	2.6507187	0.1	0.0003	1.1780972
0	-0.8928104	0.44948608	0	-1.768251e-17	-1.6906662e-22	-1.8081384e-17	2.6752625	0.1	0.0003	1.1780972
0	-0.90358996	0.42738092	0	-1.7995064e-17	-1.1268387e-22	-1.8393933e-17	2.6998062	0.1	0.0003	1.1780972
0	-0.9138126	0.4050393	0	-1.8314804e-17	-5.628862e-23	-1.8713666e-17	2.72435	0.1	0.0003	1.1780972
0	-0.92347026	0.3824839	0	-1.864142e-17	6.3610076e-26	-1.9040273e-17	2.7488935	0.1	0.0003	1.1780972
0	-0.93256277	0.35972065	0	-1.8974536e-17	5.6360104e-23	-1.937338e-17	2.7734373	0.1	0.0003	1.1780972
0	-0.94108456	0.33676907	0	-1.9313802e-17	1.1255474e-22	-1.971264e-17	2.797981	0.1	0.0003	1.1780972
0	-0.94903505	0.31363663	0	-1.965883e-17	1.6863098e-22	-2.0057664e-17	2.8225245	0.1	0.0003	1.1780972
0	-0.9564084	0.2903464	0	-2.0009253e-17	2.245346e-22	-2.0408081e-17	2.8470683	0.1	0.0003	1.1780972
0	-0.96320605	0.26689985	0	-2.036465e-17	2.80264e-22	-2.0763477e-17	2.871612	0.1	0.0003	1.1780972
0	-0.96942544	0.2433105	0	-2.0724626e-17	3.3578815e-22	-2.1123457e-17	2.8961558	0.1	0.0003	1.1780972
0	-0.97506094	0.21960714	0	-2.1088784e-17	3.91041e-22	-2.148762e-17	2.9206994	0.1	0.0003	1.1780972
0	-0.98011374	0.19579253	0	-2.1456695e-17	4.4601777e-22	-2.1855538e-17	2.9452431	0.1	0.0003	1.1780972
0	-0.98458225	0.17188136	0	-2.1827933e-17	5.006859e-22	-2.2226788e-17	2.969787	0.1	0.0003	1.1780972
0	-0.98846656	0.14788036	0	-2.2202067e-17	5.550311e-22	-2.2600938e-17	2.9943304	0.1	0.0003	1.1780972
0	-0.9917646	0.123808436	0	-2.2578669e-17	6.0901137e-22	-2.2977562e-17	3.0188742	0.1	0.0003	1.1780972
0	-0.9944763	0.09967296	0	-2.2957301e-17	6.626113e-22	-2.3356222e-17	3.043418	0.1	0.0003	1.1780972
0	-0.99660116	0.07548487	0	-2.3337523e-17	7.158068e-22	-2.3736475e-17	3.0679617	0.1	0.0003	1.1780972
0	-0.9981382	0.051259555	0	-2.3718891e-17	7.6856494e-22	-2.4117882e-17	3.0925052	0.1	0.0003	1.1780972
0	-0.9990871	0.027010035	0	-2.4100971e-17	8.2085736e-22	-2.4500003e-17	3.117049	0.1	0.0003	1.1780972
0	-0.9994479	0.0027411955	0	-2.448331e-17	8.726737e-22	-2.488239e-17	3.1415927	0.1	0.0003	1.1780972
0	-0.99921995	-0.021533275	0	-2.4865476e-17	9.239847e-22	-2.5264609e-17	3.1661363	0.1	0.0003	1.1780972
0	-0.9984037	-0.045785714	0	-2.5247013e-17	9.747318e-22	-2.5646205e-17	3.19068	0.1	0.0003	1.1780972
0	-0.996999	-0.07002605	0	-2.5627483e-17	1.024936e-21	-2.602674e-17	3.2152238	0.1	0.0003	1.1780972
0	-0.9950057	-0.09423297	0	-2.6006448e-17	1.0745518e-21	-2.6405776e-17	3.2397673	0.1	0.0003	1.1780972
0	-0.9924234	-0.11840321	0	-2.6383467e-17	1.1235722e-21	-2.6782869e-17	3.264311	0.1	0.0003	1.1780972
0	-0.98925483	-0.14250311	0	-2.6758107e-17	1.171928e-21	-2.7157587e-17	3.2888548	0.1	0.0003	1.1780972
0	-0.98549795	-0.16654275	0	-2.7129923e-17	1.2196387e-21	-2.7529487e-17	3.3133986	0.1	0.0003	1.1780972
0	-0.9811548	-0.19049913	0	-2.7498494e-17	1.2666575e-21	-2.789815e-17	3.3379421	0.1	0.0003	1.1780972
0	-0.9762251	-0.21436465	0	-2.7863394e-17	1.3129679e-21	-2.8263137e-17	3.362486	0.1	0.0003	1.1780972
0	-0.97071105	-0.2381215	0	-2.8224203e-17	1.3585342e-21	-2.8624042e-17	3.3870296	0.1	0.0003	1.1780972
0	-0.96461254	-0.26176363	0	-2.85805e-17	1.403343e-21	-2.8980438e-17	3.4115732	0.1	0.0003	1.1780972
0	-0.95793104	-0.28527525	0	-2.893189e-17	1.4473628e-21	-2.9331927e-17	3.436117	0.1	0.0003	1.1780972
0	-0.9506701	-0.3086381	0	-2.9277972e-17	1.4905572e-21	-2.9678112e-17	3.4606607	0.1	0.0003	1.1780972
0	-0.9428286	-0.33184844	0	-2.9618337e-17	1.532918e-21	-3.001858e-17	3.4852045	0.1	0.0003	1.1780972
0	-0.9344118	-0.3548835	0	-2.995263e-17	1.574401e-21	-3.0352982e-17	3.509748	0.1	0.0003	1.1780972
0	-0.9254216	-0.3777321	0	-3.0280475e-17	1.6149843e-21	-3.068093e-17	3.5342917	0.1	0.0003	1.1780972
0	-0.91585976	-0.400383	0	-3.0601517e-17	1.6546459e-21	-3.1002074e-17	3.5588355	0.1	0.0003	1.1780972
0	-0.905731	-0.4228191	0	-3.091541e-17	1.6933533e-21	-3.1316072e-17	3.583379	0.1	0.0003	1.1780972
0	-0.89503914	-0.4450265	0	-3.1221823e-17	1.7310802e-21	-3.162259e-17	3.6079228	0.1	0.0003	1.1780972
0	-0.8837876	-0.4669923	0	-3.1520452e-17	1.7678025e-21	-3.1921313e-17	3.6324666	0.1	0.0003	1.1780972
0	-0.8719806	-0.48870236	0	-3.1810987e-17	1.8034939e-21	-3.2211945e-17	3.6570103	0.1	0.0003	1.1780972
0	-0.8596273	-0.5101356	0	-3.2093175e-17	1.8381177e-21	-3.2494225e-17	3.6815538	0.1	0.0003	1.1780972
0	-0.8467308	-0.53128195	0	-3.2366757e-17	1.8716555e-21	-3.2767893e-17	3.7060976	0.1	0.0003	1.1780972
0	-0.8333016	-0.5521206	0	-3.2631524e-17	1.9040718e-21	-3.303274e-17	3.7306414	0.1	0.0003	1.1780972
0	-0.8193431	-0.5726425	0	-3.288723e-17	1.9353508e-21	-3.3288524e-17	3.755185	0.1	0.0003	1.1780972
0	-0.80486596	-0.59282833	0	-3.313372e-17	1.965461e-21	-3.3535083e-17	3.7797287	0.1	0.0003	1.1780972
0	-0.78988135	-0.6126606	0	-3.3370858e-17	1.9943745e-21	-3.377229e-17	3.8042724	0.1	0.0003	1.1780972
0	-0.7743938	-0.63213027	0	-3.359847e-17	2.0220767e-21	-3.3999955e-17	3.828816	0.1	0.0003	1.1780972
0	-0.75842005	-0.65121466	0	-3.381652e-17	2.048534e-21	-3.4218057e-17	3.8533597	0.1	0.0003	1.1780972
0	-0.74196565	-0.66990566	0	-3.4024887e-17	2.073734e-21	-3.4426466e-17	3.8779035	0.1	0.0003	1.1780972
0	-0.7250425	-0.6881882	0	-3.4223526e-17	2.0976551e-21	-3.462514e-17	3.9024472	0.1	0.0003	1.1780972
0	-0.7076687	-0.7060425	0	-3.441249e-17	2.1202713e-21	-3.481413e-17	3.9269907	0.1	0.0003	1.1780972
0	-0.6898537	-0.7234581	0	-3.4591767e-17	2.1415692e-21	-3.4993426e-17	3.9515345	0.1	0.0003	1.1780972
0	-0.67161417	-0.7404198	0	-3.4761438e-17	2.16153e-21	-3.5163107e-17	3.9760783	0.1	0.0003	1.1780972
0	-0.6529803	-0.7569008	0	-3.4921785e-17	2.1801246e-21	-3.5323458e-17	4.000622	0.1	0.0003	1.1780972
0	-0.6339248	-0.77292603	0	-3.5072425e-17	2.1973815e-21	-3.5474087e-17	4.0251656	0.1	0.0003	1.1780972
0	-0.61448693	-0.788462	0	-3.5213767e-17	2.2132637e-21	-3.561542e-17	4.0497093	0.1	0.0003	1.1780972
0	-0.5946801	-0.8034995	0	-3.5345964e-17	2.2277642e-21	-3.5747593e-17	4.074253	0.1	0.0003	1.1780972
0	-0.574518	-0.81802976	0	-3.5469184e-17	2.2408761e-21	-3.5870787e-17	4.098797	0.1	0.0003	1.1780972
0	-0.55401736	-0.8320425	0	-3.5583652e-17	2.2525921e-21	-3.5985225e-17	4.12334	0.1	0.0003	1.1780972
0	-0.5331965	-0.84552735	0	-3.568964e-17	2.2629062e-21	-3.609117e-17	4.147884	0.1	0.0003	1.1780972
0	-0.5120666	-0.85847926	0	-3.578734e-17	2.271818e-21	-3.6188828e-17	4.1724277	0.1	0.0003	1.1780972
0	-0.49064517	-0.8708898	0	-3.5877057e-17	2.2793247e-21	-3.6278494e-17	4.1969714	0.1	0.0003	1.1780972
0	-0.4689476	-0.88275254	0	-3.5959076e-17	2.2854261e-21	-3.636046e-17	4.221515	0.1	0.0003	1.1780972
0	-0.44699097	-0.89406055	0	-3.6033738e-17	2.290123e-21	-3.6435066e-17	4.246059	0.1	0.0003	1.1780972
0	-0.42478725	-0.90481055	0	-3.610131e-17	2.2934182e-21	-3.6502574e-17	4.2706027	0.1	0.0003	1.1780972
0	-0.4023491	-0.9149986	0	-3.616209e-17	2.2953151e-21	-3.6563292e-17	4.295146	0.1	0.0003	1.1780972
0	-0.37969676	-0.924618	0	-3.62165e-17	2.2958172e-21	-3.661764e-17	4.3196898	0.1	0.0003	1.1780972
0	-0.35684523	-0.93366516	0	-3.6264908e-17	2.2949294e-21	-3.6665985e-17	4.3442335	0.1	0.0003	1.1780972
0	-0.33380002	-0.9421402	0	-3.6307545e-17	2.2926575e-21	-3.6708555e-17	4.3687773	0.1	0.0003	1.1780972
0	-0.3105843	-0.9500367	0	-3.6344917e-17	2.289008e-21	-3.674586e-17	4.393321	0.1	0.0003	1.1780972
0	-0.28720498	-0.9573548	0	-3.6377296e-17	2.2839878e-21	-3.6778174e-17	4.417865	0.1	0.0003	1.1780972
0	-0.2636823	-0.9640903	0	-3.6405172e-17	2.2776047e-21	-3.6805987e-17	4.4424086	0.1	0.0003	1.1780972
0	-0.2400207	-0.9702438	0	-3.642879e-17	2.2698644e-21	-3.6829545e-17	4.466952	0.1	0.0003	1.1780972
0	-0.21624382	-0.97581095	0	-3.6448705e-17	2.2607787e-21	-3.68494e-17	4.4914956	0.1	0.0003	1.1780972
0	-0.19235775	-0.9807923	0	-3.646521e-17	2.2503545e-21	-3.686585e-17	4.5160394	0.1	0.0003	1.1780972
0	-0.16837654	-0.9851865	0	-3.6478728e-17	2.2386003e-21	-3.6879315e-17	4.540583	0.1	0.0003	1.1780972
0	-0.14431103	-0.988993	0	-3.6489633e-17	2.2255246e-21	-3.689017e-17	4.565127	0.1	0.0003	1.1780972
0	-0.12018918	-0.99220884	0	-3.6498574e-17	2.211146e-21	-3.6899065e-17	4.5896707	0.1	0.0003	1.1780972
0	-0.0959822	-0.9948385	0	-3.6505313e-17	2.1954488e-21	-3.690576e-17	4.6142144	0.1	0.0003	1.1780972
0	-0.071740754	-0.99687696	0	-3.651086e-17	2.1784672e-21	-3.691127e-17	4.6387577	0.1	0.0003	1.1780972
0	-0.04746801	-0.9983251	0	-3.6515484e-17	2.160205e-21	-3.6915863e-17	4.6633015	0.1	0.0003	1.1780972
0	-0.023170179	-0.9991831	0	-3.6519498e-17	2.1406683e-21	-3.691985e-17	4.687845	0.1	0.0003	1.1780972
0	0.0011370183	-0.9994507	0	-3.652338e-17	2.1198708e-21	-3.6923705e-17	4.712389	0.1	0.0003	1.1780972
0	0.025436036	-0.99912804	0	-3.6527624e-17	2.097828e-21	-3.692793e-17	4.7369328	0.1	0.0003	1.1780972
0	0.049735118	-0.9982149	0	-3.6532313e-17	2.0745318e-21	-3.6932605e-17	4.7614765	0.1	0.0003	1.1780972
0	0.07400328	-0.9967118	0	-3.653816e-17	2.050011e-21	-3.6938445e-17	4.7860203	0.1	0.0003	1.1780972
0	0.09823375	-0.9946191	0	-3.6545495e-17	2.0242721e-21	-3.6945774e-17	4.8105636	0.1	0.0003	1.1780972
0	0.12242362	-0.991936	0	-3.655457e-17	1.9973162e-21	-3.695485e-17	4.8351073	0.1	0.0003	1.1780972
0	0.14654511	-0.9886649	0	-3.6566035e-17	1.9691727e-21	-3.6966318e-17	4.859651	0.1	0.0003	1.1780972
0	0.17059423	-0.9848055	0	-3.6580167e-17	1.9398444e-21	-3.698046e-17	4.884195	0.1	0.0003	1.1780972
0	0.19455715	-0.9803591	0	-3.659738e-17	1.909346e-21	-3.699768e-17	4.9087386	0.1	0.0003	1.1780972
0	0.21842344	-0.97532606	0	-3.6618038e-17	1.877688e-21	-3.7018357e-17	4.9332824	0.1	0.0003	1.1780972
0	0.2421776	-0.9697083	0	-3.6642576e-17	1.8448878e-21	-3.704291e-17	4.957826	0.1	0.0003	1.1780972
0	0.26580974	-0.96350676	0	-3.667134e-17	1.8109558e-21	-3.7071694e-17	4.9823694	0.1	0.0003	1.1780972
0	0.28930962	-0.95672184	0	-3.670466e-17	1.7759018e-21	-3.7105036e-17	5.006913	0.1	0.0003	1.1780972
0	0.31265688	-0.9493576	0	-3.6743025e-17	1.739753e-21	-3.7143424e-17	5.031457	0.1	0.0003	1.1780972
0	0.33584237	-0.9414151	0	-3.6786737e-17	1.7025193e-21	-3.7187162e-17	5.0560007	0.1	0.0003	1.1780972
0	0.35884988	-0.9328975	0	-3.6836206e-17	1.6642216e-21	-3.7236657e-17	5.0805445	0.1	0.0003	1.1780972
0	0.38167128	-0.9238058	0	-3.689169e-17	1.624869e-21	-3.7292164e-17	5.105088	0.1	0.0003	1.1780972
0	0.40427992	-0.91414815	0	-3.6953718e-17	1.5845029e-21	-3.735422e-17	5.1296315	0.1	0.0003	1.1780972
0	0.42667538	-0.90392286	0	-3.7022434e-17	1.5431191e-21	-3.7422958e-17	5.1541753	0.1	0.0003	1.1780972
0	0.44883618	-0.8931367	0	-3.709825e-17	1.500752e-21	-3.7498794e-17	5.178719	0.1	0.0003	1.1780972
0	0.47075272	-0.8817922	0	-3.7181408e-17	1.4574143e-21	-3.758197e-17	5.203263	0.1	0.0003	1.1780972
0	0.49240464	-0.8698972	0	-3.7272292e-17	1.4131413e-21	-3.767287e-17	5.2278066	0.1	0.0003	1.1780972
0	0.5137775	-0.8574574	0	-3.7371156e-17	1.3679571e-21	-3.7771744e-17	5.2523503	0.1	0.0003	1.1780972
0	0.53485674	-0.844479	0	-3.7478273e-17	1.3218886e-21	-3.787887e-17	5.276894	0.1	0.0003	1.1780972
0	0.55561596	-0.83097667	0	-3.759403e-17	1.2749895e-21	-3.7994626e-17	5.3014374	0.1	0.0003	1.1780972
0	0.5760508	-0.8169518	0	-3.7718506e-17	1.2272663e-21	-3.81191e-17	5.325981	0.1	0.0003	1.1780972
0	0.5961556	-0.802406	0	-3.785179e-17	1.1787279e-21	-3.8252375e-17	5.350525	0.1	0.0003	1.1780972
0	0.6159095	-0.7873518	0	-3.7994136e-17	1.1294193e-21	-3.8394706e-17	5.3750687	0.1	0.0003	1.1780972
0	0.6352918	-0.77180326	0	-3.8145785e-17	1.0793882e-21	-3.8546332e-17	5.3996124	0.1	0.0003	1.1780972
0	0.6542873	-0.7557717	0	-3.8306867e-17	1.028672e-21	-3.8707387e-17	5.424156	0.1	0.0003	1.1780972
0	0.6728883	-0.73926246	0	-3.8477415e-17	9.772889e-22	-3.88779e-17	5.4487	0.1	0.0003	1.1780972
0	0.69107336	-0.7222938	0	-3.8657584e-17	9.252963e-22	-3.9058026e-17	5.473243	0.1	0.0003	1.1780972
0	0.70883083	-0.704876	0	-3.8847413e-17	8.727266e-22	-3.9247804e-17	5.497787	0.1	0.0003	1.1780972
0	0.7261482	-0.68702173	0	-3.9046902e-17	8.1961795e-22	-3.9447238e-17	5.5223308	0.1	0.0003	1.1780972
0	0.74300724	-0.6687503	0	-3.9256106e-17	7.6602665e-22	-3.9656375e-17	5.5468745	0.1	0.0003	1.1780972
0	0.7594033	-0.65006775	0	-3.947491e-17	7.1196986e-22	-3.9875105e-17	5.5714183	0.1	0.0003	1.1780972
0	0.77532196	-0.6309914	0	-3.970328e-17	6.574969e-22	-4.01034e-17	5.595962	0.1	0.0003	1.1780972
0	0.7907514	-0.611537	0	-3.994112e-17	6.026519e-22	-4.0341155e-17	5.620506	0.1	0.0003	1.1780972
0	0.8056831	-0.59171736	0	-4.01883e-17	5.474695e-22	-4.0588244e-17	5.645049	0.1	0.0003	1.1780972
0	0.8201042	-0.5715517	0	-4.0444688e-17	4.9200136e-22	-4.0844538e-17	5.669593	0.1	0.0003	1.1780972
0	0.83400697	-0.5510543	0	-4.07101e-17	4.362848e-22	-4.110985e-17	5.6941366	0.1	0.0003	1.1780972
0	0.84738547	-0.53023684	0	-4.0984315e-17	3.8034993e-22	-4.1383955e-17	5.7186804	0.1	0.0003	1.1780972
0	0.8602284	-0.5091211	0	-4.126713e-17	3.2425313e-22	-4.1666662e-17	5.743224	0.1	0.0003	1.1780972
0	0.87253267	-0.48771566	0	-4.155827e-17	2.6801482e-22	-4.1957688e-17	5.767768	0.1	0.0003	1.1780972
0	0.8842894	-0.46604094	0	-4.185747e-17	2.1168628e-22	-4.2256773e-17	5.7923117	0.1	0.0003	1.1780972
0	0.89549315	-0.44411212	0	-4.2164453e-17	1.5530476e-22	-4.2563637e-17	5.816855	0.1	0.0003	1.1780972
0	0.9061408	-0.42194033	0	-4.2478884e-17	9.8896406e-23	-4.287795e-17	5.8413987	0.1	0.0003	1.1780972
0	0.91622746	-0.39954075	0	-4.2800442e-17	4.2498016e-23	-4.319939e-17	5.8659425	0.1	0.0003	1.1780972
0	0.92574835	-0.37693053	0	-4.3128787e-17	-1.3850498e-23	-4.352761e-17	5.8904862	0.1	0.0003	1.1780972
0	0.9347006	-0.354122	0	-4.346356e-17	-7.011986e-23	-4.386226e-17	5.91503	0.1	0.0003	1.1780972
0	0.94308114	-0.33113036	0	-4.3804398e-17	-1.2627521e-22	-4.420298e-17	5.939574	0.1	0.0003	1.1780972
0	0.95088726	-0.30796856	0	-4.4150907e-17	-1.8228684e-22	-4.4549374e-17	5.9641175	0.1	0.0003	1.1780972
0	0.95811814	-0.28464675	0	-4.45027e-17	-2.381322e-22	-4.4901054e-17	5.988661	0.1	0.0003	1.1780972
0	0.9647685	-0.26118836	0	-4.485939e-17	-2.9375734e-22	-4.5257632e-17	6.0132046	0.1	0.0003	1.1780972
0	0.9708403	-0.23759487	0	-4.5220555e-17	-3.491605e-22	-4.5618687e-17	6.0377483	0.1	0.0003	1.1780972
0	0.9763302	-0.21388641	0	-4.5585785e-17	-4.042961e-22	-4.5983814e-17	6.062292	0.1	0.0003	1.1780972
0	0.9812376	-0.19007303	0	-4.5954654e-17	-4.591425e-22	-4.635258e-17	6.086836	0.1	0.0003	1.1780972
0	0.98556155	-0.16616763	0	-4.6326747e-17	-5.1367123e-22	-4.6724577e-17	6.1113796	0.1	0.0003	1.1780972
0	0.9893003	-0.14218888	0	-4.670163e-17	-5.678414e-22	-4.7099373e-17	6.1359234	0.1	0.0003	1.1780972
0	0.99245626	-0.11813002	0	-4.7078865e-17	-6.21669e-22	-4.747652e-17	6.1604667	0.1	0.0003	1.1780972
0	0.9950261	-0.094020516	0	-4.7458022e-17	-6.7508924e-22	-4.78556e-17	6.1850104	0.1	0.0003	1.1780972
0	0.99701005	-0.06987218	0	-4.7838657e-17	-7.2807666e-22	-4.8236164e-17	6.209554	0.1	0.0003	1.1780972
0	0.9984087	-0.045688704	0	-4.8220345e-17	-7.8062414e-22	-4.8617782e-17	6.234098	0.1	0.0003	1.1780972
0	0.9992215	-0.021478107	0	-4.8602628e-17	-8.3271435e-22	-4.9000006e-17	6.2586417	0.1	0.0003	1.1780972
0	0.9994482	0.0027370623	0	-4.898507e-17	-8.842992e-22	-4.9382395e-17	6.2831855	0.1	0.0003	1.1780972
