# t (s)	mx ()	my ()	mz ()	E_total (J)	E_Zeeman (J)	E_custom (J)	Angle_bias (rad)	Field_bias (T)	Field_ext (T)	Angle_ext (rad)
0	0.9922778	0.081070304	0	-5.6773345e-19	-1.176212e-19	-1.2738008e-18	0	0.1	0.01	1.1780972
0	0.99038655	0.10211635	0	-1.8416887e-18	-1.2246452e-19	-2.543592e-18	0.024543693	0.1	0.01	1.1780972
0	0.9880502	0.12319197	0	-3.1104948e-18	-1.2727085e-19	-3.8084198e-18	0.049087387	0.1	0.01	1.1780972
0	0.9852781	0.1441984	0	-4.373267e-18	-1.3201746e-19	-5.0674164e-18	0.07363108	0.1	0.01	1.1780972
0	0.9820619	0.16518861	0	-5.629056e-18	-1.3671626e-19	-6.3196185e-18	0.09817477	0.1	0.01	1.1780972
0	0.9783977	0.18616782	0	-6.876901e-18	-1.4136802e-19	-7.564063e-18	0.12271846	0.1	0.01	1.1780972
0	0.97427964	0.20714165	0	-8.115809e-18	-1.459736e-19	-8.799751e-18	0.14726216	0.1	0.01	1.1780972
0	0.9697129	0.22806472	0	-9.344902e-18	-1.5052262e-19	-1.0025809e-17	0.17180584	0.1	0.01	1.1780972
0	0.9646811	0.24898939	0	-1.0563042e-17	-1.5502598e-19	-1.1241084e-17	0.19634955	0.1	0.01	1.1780972
0	0.9591759	0.26991874	0	-1.1769141e-17	-1.5948358e-19	-1.2444482e-17	0.22089323	0.1	0.01	1.1780972
0	0.95321286	0.2907706	0	-1.2962446e-17	-1.6387734e-19	-1.3635262e-17	0.24543692	0.1	0.01	1.1780972
0	0.946749	0.3116682	0	-1.4141313e-17	-1.682324e-19	-1.4811748e-17	0.2699806	0.1	0.01	1.1780972
0	0.9397675	0.33261985	0	-1.5304377e-17	-1.725492e-19	-1.5972571e-17	0.2945243	0.1	0.01	1.1780972
0	0.9322945	0.35351223	0	-1.6451008e-17	-1.7680316e-19	-1.7117105e-17	0.319068	0.1	0.01	1.1780972
0	0.92430115	0.37439668	0	-1.7579606e-17	-1.8100366e-19	-1.8243733e-17	0.3436117	0.1	0.01	1.1780972
0	0.9157739	0.39527234	0	-1.8688774e-17	-1.8514922e-19	-1.9351047e-17	0.3681554	0.1	0.01	1.1780972
0	0.90669584	0.4161418	0	-1.9776988e-17	-1.8923877e-19	-2.0437505e-17	0.3926991	0.1	0.01	1.1780972
0	0.89705336	0.4369971	0	-2.084273e-17	-1.9326904e-19	-2.1501579e-17	0.41724277	0.1	0.01	1.1780972
0	0.88683206	0.4578284	0	-2.188442e-17	-1.9723628e-19	-2.2541671e-17	0.44178647	0.1	0.01	1.1780972
0	0.8760388	0.47858417	0	-2.2900949e-17	-2.0112884e-19	-2.3556655e-17	0.46633017	0.1	0.01	1.1780972
0	0.86457485	0.49940774	0	-2.3888455e-17	-2.049712e-19	-2.4542646e-17	0.49087384	0.1	0.01	1.1780972
0	0.85256255	0.5200345	0	-2.4848782e-17	-2.0871222e-19	-2.5501474e-17	0.5154175	0.1	0.01	1.1780972
0	0.83985615	0.54067737	0	-2.5776606e-17	-2.1238838e-19	-2.6427779e-17	0.5399612	0.1	0.01	1.1780972
0	0.8265057	0.56120574	0	-2.6671823e-17	-2.1597338e-19	-2.7321446e-17	0.5645049	0.1	0.01	1.1780972
0	0.81243265	0.5816933	0	-2.7530617e-17	-2.194771e-19	-2.8178616e-17	0.5890486	0.1	0.01	1.1780972
0	0.797757	0.6019248	0	-2.8355235e-17	-2.2285996e-19	-2.9001535e-17	0.6135923	0.1	0.01	1.1780972
0	0.782428	0.62194246	0	-2.9142817e-17	-2.26127e-19	-2.9787307e-17	0.638136	0.1	0.01	1.1780972
0	0.7664619	0.6416948	0	-2.989263e-17	-2.2926753e-19	-3.0535187e-17	0.6626797	0.1	0.01	1.1780972
0	0.74987274	0.6611388	0	-3.060402e-17	-2.3227273e-19	-3.1244494e-17	0.6872234	0.1	0.01	1.1780972
0	0.73269975	0.6802093	0	-3.1277363e-17	-2.351308e-19	-3.19156e-17	0.7117671	0.1	0.01	1.1780972
0	0.71498966	0.69884366	0	-3.1913528e-17	-2.3783149e-19	-3.2549372e-17	0.7363108	0.1	0.01	1.1780972
0	0.69686097	0.71692014	0	-3.2516447e-17	-2.4035736e-19	-3.3149746e-17	0.7608545	0.1	0.01	1.1780972
0	0.6781304	0.73461777	0	-3.307863e-17	-2.427331e-19	-3.3709208e-17	0.7853982	0.1	0.01	1.1780972
0	0.6591009	0.75165486	0	-3.3611597e-17	-2.449213e-19	-3.4239338e-17	0.8099418	0.1	0.01	1.1780972
0	0.63974285	0.7680803	0	-3.4114308e-17	-2.4693078e-19	-3.4739094e-17	0.83448553	0.1	0.01	1.1780972
0	0.6201064	0.7838719	0	-3.4588987e-17	-2.4876126e-19	-3.5210726e-17	0.85902923	0.1	0.01	1.1780972
0	0.6002497	0.79900694	0	-3.503839e-17	-2.5041296e-19	-3.5657013e-17	0.88357294	0.1	0.01	1.1780972
0	0.58022517	0.8134731	0	-3.5465203e-17	-2.5188815e-19	-3.6080675e-17	0.90811664	0.1	0.01	1.1780972
0	0.5601433	0.82722396	0	-3.587483e-17	-2.5318672e-19	-3.648716e-17	0.93266034	0.1	0.01	1.1780972
0	0.53990513	0.8403563	0	-3.6263542e-17	-2.5432193e-19	-3.687273e-17	0.957204	0.1	0.01	1.1780972
0	0.5195814	0.8528489	0	-3.663506e-17	-2.552958e-19	-3.7241153e-17	0.9817477	0.1	0.01	1.1780972
0	0.49922493	0.86469686	0	-3.6992427e-17	-2.5611236e-19	-3.75955e-17	1.0062914	0.1	0.01	1.1780972
0	0.47876972	0.8759621	0	-3.7333242e-17	-2.567798e-19	-3.7933375e-17	1.030835	0.1	0.01	1.1780972
0	0.45838326	0.8865784	0	-3.7665944e-17	-2.5729898e-19	-3.826326e-17	1.0553788	0.1	0.01	1.1780972
0	0.43805665	0.89658004	0	-3.7990884e-17	-2.5767705e-19	-3.8585524e-17	1.0799224	0.1	0.01	1.1780972
0	0.41762134	0.90606815	0	-3.8300653e-17	-2.5792174e-19	-3.889275e-17	1.1044662	0.1	0.01	1.1780972
0	0.3972556	0.91497815	0	-3.8604384e-17	-2.5803511e-19	-3.9194094e-17	1.1290098	0.1	0.01	1.1780972
0	0.3769727	0.9233271	0	-3.8903376e-17	-2.5802255e-19	-3.9490886e-17	1.1535536	0.1	0.01	1.1780972
0	0.35662794	0.9311909	0	-3.9191146e-17	-2.5788793e-19	-3.977663e-17	1.1780972	0.1	0.01	1.1780972
0	0.33625826	0.9385646	0	-3.947e-17	-2.5763365e-19	-4.0053644e-17	1.2026409	0.1	0.01	1.1780972
0	0.3160005	0.9454153	0	-3.974727e-17	-2.5726545e-19	-4.0329273e-17	1.2271847	0.1	0.01	1.1780972
0	0.29571095	0.9518042	0	-4.0016338e-17	-2.5678377e-19	-4.0596903e-17	1.2517283	0.1	0.01	1.1780972
0	0.27538908	0.95773953	0	-4.0277638e-17	-2.5619042e-19	-4.0856962e-17	1.276272	0.1	0.01	1.1780972
0	0.25511193	0.9632079	0	-4.0535526e-17	-2.5548993e-19	-4.111384e-17	1.3008157	0.1	0.01	1.1780972
0	0.23482601	0.9682328	0	-4.0787783e-17	-2.5468255e-19	-4.13653e-17	1.3253593	0.1	0.01	1.1780972
0	0.21455477	0.97281563	0	-4.1036053e-17	-2.5377097e-19	-4.1612988e-17	1.3499031	0.1	0.01	1.1780972
0	0.1942928	0.9769644	0	-4.1280518e-17	-2.5275654e-19	-4.1857103e-17	1.3744467	0.1	0.01	1.1780972
0	0.1740235	0.9806882	0	-4.1520774e-17	-2.516398e-19	-4.209723e-17	1.3989905	0.1	0.01	1.1780972
0	0.1536481	0.9840062	0	-4.175215e-17	-2.5041557e-19	-4.232871e-17	1.4235342	0.1	0.01	1.1780972
0	0.13339144	0.9868866	0	-4.1986682e-17	-2.490985e-19	-4.2563578e-17	1.4480779	0.1	0.01	1.1780972
0	0.11311786	0.9893553	0	-4.2217803e-17	-2.476813e-19	-4.2795264e-17	1.4726216	0.1	0.01	1.1780972
0	0.09288132	0.9914095	0	-4.2448735e-17	-2.4616872e-19	-4.3026994e-17	1.4971652	0.1	0.01	1.1780972
0	0.072610565	0.9930586	0	-4.2676207e-17	-2.4455595e-19	-4.32555e-17	1.521709	0.1	0.01	1.1780972
0	0.052333806	0.9943017	0	-4.2902096e-17	-2.4284547e-19	-4.3482665e-17	1.5462526	0.1	0.01	1.1780972
0	0.03205191	0.99513906	0	-4.3126878e-17	-2.4103764e-19	-4.3708948e-17	1.5707964	0.1	0.01	1.1780972
0	0.011758065	0.99557227	0	-4.335061e-17	-2.391319e-19	-4.3934424e-17	1.59534	0.1	0.01	1.1780972
0	-0.008548565	0.9956006	0	-4.3573678e-17	-2.3712815e-19	-4.4159474e-17	1.6198837	0.1	0.01	1.1780972
0	-0.02887426	0.99522334	0	-4.3796166e-17	-2.350256e-19	-4.4384186e-17	1.6444274	0.1	0.01	1.1780972
0	-0.049199678	0.9944399	0	-4.4019525e-17	-2.3282596e-19	-4.4610003e-17	1.6689711	0.1	0.01	1.1780972
0	-0.0695466	0.993248	0	-4.4243045e-17	-2.3052653e-19	-4.483623e-17	1.6935148	0.1	0.01	1.1780972
0	-0.089904636	0.99164546	0	-4.4467694e-17	-2.281279e-19	-4.5063814e-17	1.7180585	0.1	0.01	1.1780972
0	-0.110277995	0.98962975	0	-4.4693713e-17	-2.2562897e-19	-4.5293016e-17	1.7426022	0.1	0.01	1.1780972
0	-0.13070135	0.98719275	0	-4.491975e-17	-2.230244e-19	-4.5522472e-17	1.7671459	0.1	0.01	1.1780972
0	-0.15108514	0.9843421	0	-4.515087e-17	-2.2032483e-19	-4.5757246e-17	1.7916895	0.1	0.01	1.1780972
0	-0.17151996	0.9810608	0	-4.5382867e-17	-2.1751735e-19	-4.5993145e-17	1.8162333	0.1	0.01	1.1780972
0	-0.19200477	0.9773424	0	-4.561631e-17	-2.1460036e-19	-4.6230734e-17	1.8407769	0.1	0.01	1.1780972
0	-0.21249105	0.97318876	0	-4.5854125e-17	-2.1157926e-19	-4.6472923e-17	1.8653207	0.1	0.01	1.1780972
0	-0.23302947	0.9685826	0	-4.6094262e-17	-2.0844478e-19	-4.6717685e-17	1.8898643	0.1	0.01	1.1780972
0	-0.2535777	0.9635249	0	-4.6339366e-17	-2.0520143e-19	-4.6967633e-17	1.914408	0.1	0.01	1.1780972
0	-0.27419963	0.95799047	0	-4.658677e-17	-2.018368e-19	-4.722013e-17	1.9389517	0.1	0.01	1.1780972
0	-0.29483438	0.95198417	0	-4.684005e-17	-1.9835816e-19	-4.747873e-17	1.9634954	0.1	0.01	1.1780972
0	-0.31545994	0.9455032	0	-4.7100845e-17	-1.9476696e-19	-4.7745063e-17	1.9880391	0.1	0.01	1.1780972
0	-0.33614993	0.9385114	0	-4.7366102e-17	-1.9104724e-19	-4.801608e-17	2.0125828	0.1	0.01	1.1780972
0	-0.35694802	0.9309801	0	-4.7634354e-17	-1.8718792e-19	-4.829034e-17	2.0371265	0.1	0.01	1.1780972
0	-0.37777743	0.9229151	0	-4.7910007e-17	-1.831979e-19	-4.8572194e-17	2.06167	0.1	0.01	1.1780972
0	-0.3986668	0.9142885	0	-4.8192333e-17	-1.7906768e-19	-4.886095e-17	2.0862138	0.1	0.01	1.1780972
0	-0.4196683	0.9050557	0	-4.847965e-17	-1.7478148e-19	-4.9154897e-17	2.1107576	0.1	0.01	1.1780972
0	-0.44063702	0.89525753	0	-4.8779473e-17	-1.703634e-19	-4.946151e-17	2.1353014	0.1	0.01	1.1780972
0	-0.46175265	0.8847854	0	-4.9084276e-17	-1.6576964e-19	-4.9773314e-17	2.1598449	0.1	0.01	1.1780972
0	-0.4828966	0.87366545	0	-4.940037e-17	-1.6101828e-19	-5.0096553e-17	2.1843886	0.1	0.01	1.1780972
0	-0.50409544	0.86185277	0	-4.9727435e-17	-1.5609594e-19	-5.0430892e-17	2.2089324	0.1	0.01	1.1780972
0	-0.52530473	0.84933823	0	-5.006833e-17	-1.5100472e-19	-5.0779182e-17	2.233476	0.1	0.01	1.1780972
0	-0.54652214	0.8360871	0	-5.0424067e-17	-1.4573667e-19	-5.114239e-17	2.2580197	0.1	0.01	1.1780972
0	-0.5676267	0.8221404	0	-5.0800712e-17	-1.403135e-19	-5.1526516e-17	2.2825634	0.1	0.01	1.1780972
0	-0.58876926	0.8073587	0	-5.1192742e-17	-1.3468704e-19	-5.192607e-17	2.3071072	0.1	0.01	1.1780972
0	-0.609801	0.79179937	0	-5.1607315e-17	-1.2888562e-19	-5.2348135e-17	2.3316507	0.1	0.01	1.1780972
0	-0.63067764	0.7754546	0	-5.2046998e-17	-1.2291184e-19	-5.279523e-17	2.3561945	0.1	0.01	1.1780972
0	-0.65132177	0.75834686	0	-5.2515517e-17	-1.1677874e-19	-5.3271024e-17	2.3807383	0.1	0.01	1.1780972
0	-0.67166364	0.7405005	0	-5.3016007e-17	-1.1049897e-19	-5.3778615e-17	2.4052818	0.1	0.01	1.1780972
0	-0.6916373	0.72194505	0	-5.3551193e-17	-1.040862e-19	-5.4320686e-17	2.4298255	0.1	0.01	1.1780972
0	-0.7111629	0.70273405	0	-5.4124e-17	-9.756106e-20	-5.4900123e-17	2.4543693	0.1	0.01	1.1780972
0	-0.7301577	0.68293756	0	-5.4737043e-17	-9.094857e-20	-5.55195e-17	2.478913	0.1	0.01	1.1780972
0	-0.74856406	0.6626147	0	-5.5391647e-17	-8.426848e-20	-5.6180155e-17	2.5034566	0.1	0.01	1.1780972
0	-0.76632345	0.6418395	0	-5.6088854e-17	-7.754435e-20	-5.68831e-17	2.5280004	0.1	0.01	1.1780972
0	-0.78337586	0.6207028	0	-5.682936e-17	-7.080383e-20	-5.762904e-17	2.552544	0.1	0.01	1.1780972
0	-0.7997016	0.5992594	0	-5.761232e-17	-6.406191e-20	-5.841713e-17	2.5770876	0.1	0.01	1.1780972
0	-0.81533575	0.5774933	0	-5.843508e-17	-5.731133e-20	-5.9244786e-17	2.6016314	0.1	0.01	1.1780972
0	-0.83016396	0.55560744	0	-5.929926e-17	-5.061193e-20	-6.0113584e-17	2.6261752	0.1	0.01	1.1780972
0	-0.8442249	0.5336013	0	-6.020182e-17	-4.395976e-20	-6.102054e-17	2.6507187	0.1	0.01	1.1780972
0	-0.8575439	0.51148725	0	-6.114016e-17	-3.7355224e-20	-6.1963114e-17	2.6752625	0.1	0.01	1.1780972
0	-0.8700854	0.48938593	0	-6.2113283e-17	-3.0830715e-20	-6.2940305e-17	2.6998062	0.1	0.01	1.1780972
0	-0.88200563	0.467066	0	-6.3115634e-17	-2.4315485e-20	-6.3946627e-17	2.72435	0.1	0.01	1.1780972
0	-0.89314765	0.44487813	0	-6.4149074e-17	-1.790886e-20	-6.4983924e-17	2.7488935	0.1	0.01	1.1780972
0	-0.9036574	0.4225898	0	-6.5208606e-17	-1.15408174e-20	-6.604727e-17	2.7734373	0.1	0.01	1.1780972
0	-0.91351634	0.40028474	0	-6.629306e-17	-5.2332276e-21	-6.713549e-17	2.797981	0.1	0.01	1.1780972
0	-0.92274064	0.37797573	0	-6.74005e-17	1.0125025e-21	-6.82467e-17	2.8225245	0.1	0.01	1.1780972
0	-0.93135226	0.35565832	0	-6.852904e-17	7.199559e-21	-6.937901e-17	2.8470683	0.1	0.01	1.1780972
0	-0.9393678	0.3333345	0	-6.9676924e-17	1.3329129e-20	-7.053069e-17	2.871612	0.1	0.01	1.1780972
0	-0.94682425	0.31093627	0	-7.0842196e-17	1.9421155e-20	-7.169982e-17	2.8961558	0.1	0.01	1.1780972
0	-0.95368654	0.28861356	0	-7.202401e-17	2.5436282e-20	-7.288553e-17	2.9206994	0.1	0.01	1.1780972
0	-0.959989	0.26630673	0	-7.322055e-17	3.139219e-20	-7.4086035e-17	2.9452431	0.1	0.01	1.1780972
0	-0.9657611	0.24394554	0	-7.4430175e-17	3.7308576e-20	-7.529971e-17	2.969787	0.1	0.01	1.1780972
0	-0.97099537	0.22159074	0	-7.565176e-17	4.317018e-20	-7.652542e-17	2.9943304	0.1	0.01	1.1780972
0	-0.9757114	0.19918863	0	-7.688391e-17	4.8991804e-20	-7.7761813e-17	3.0188742	0.1	0.01	1.1780972
0	-0.97990793	0.17677297	0	-7.812545e-17	5.476524e-20	-7.900769e-17	3.043418	0.1	0.01	1.1780972
0	-0.9835914	0.15433782	0	-7.937516e-17	6.049249e-20	-8.0261864e-17	3.0679617	0.1	0.01	1.1780972
0	-0.9867676	0.13187271	0	-8.063188e-17	6.617671e-20	-8.152315e-17	3.0925052	0.1	0.01	1.1780972
0	-0.989439	0.1093806	0	-8.189444e-17	7.181741e-20	-8.27904e-17	3.117049	0.1	0.01	1.1780972
0	-0.99160975	0.08683902	0	-8.3161715e-17	7.7420364e-20	-8.406251e-17	3.1415927	0.1	0.01	1.1780972
0	-0.99327904	0.06425976	0	-8.4432595e-17	8.298266e-20	-8.533834e-17	3.1661363	0.1	0.01	1.1780972
0	-0.9944472	0.041632585	0	-8.570596e-17	8.850679e-20	-8.661679e-17	3.19068	0.1	0.01	1.1780972
0	-0.9951123	0.018990366	0	-8.6980675e-17	9.398476e-20	-8.789673e-17	3.2152238	0.1	0.01	1.1780972
0	-0.99527407	-0.00371292	0	-8.825564e-17	9.942746e-20	-8.917706e-17	3.2397673	0.1	0.01	1.1780972
0	-0.9949295	-0.026450012	0	-8.952972e-17	1.0482808e-19	-9.045664e-17	3.264311	0.1	0.01	1.1780972
0	-0.9940748	-0.049243245	0	-9.0801786e-17	1.1019164e-19	-9.173434e-17	3.2888548	0.1	0.01	1.1780972
0	-0.99270445	-0.07210221	0	-9.207067e-17	1.1551983e-19	-9.300901e-17	3.3133986	0.1	0.01	1.1780972
0	-0.9908161	-0.09498027	0	-9.3335196e-17	1.2080133e-19	-9.4279465e-17	3.3379421	0.1	0.01	1.1780972
0	-0.9883982	-0.11794365	0	-9.4594165e-17	1.2605081e-19	-9.55445e-17	3.362486	0.1	0.01	1.1780972
0	-0.9854459	-0.14095862	0	-9.5846324e-17	1.312597e-19	-9.6802876e-17	3.3870296	0.1	0.01	1.1780972
0	-0.9819509	-0.16402747	0	-9.709042e-17	1.364277e-19	-9.8053315e-17	3.4115732	0.1	0.01	1.1780972
0	-0.9778923	-0.187212	0	-9.8325014e-17	1.415676e-19	-9.929441e-17	3.436117	0.1	0.01	1.1780972
0	-0.97327244	-0.21042989	0	-9.954883e-17	1.4665986e-19	-1.0052485e-16	3.4606607	0.1	0.01	1.1780972
0	-0.96806794	-0.23373796	0	-1.0076032e-16	1.5171581e-19	-1.017431e-16	3.4852045	0.1	0.01	1.1780972
0	-0.9622551	-0.2571666	0	-1.0195783e-16	1.5674036e-19	-1.0294751e-16	3.509748	0.1	0.01	1.1780972
0	-0.95582646	-0.28067324	0	-1.031398e-16	1.6172259e-19	-1.041365e-16	3.5342917	0.1	0.01	1.1780972
0	-0.9487486	-0.3043061	0	-1.0430427e-16	1.6667066e-19	-1.053081e-16	3.5588355	0.1	0.01	1.1780972
0	-0.94101614	-0.3280102	0	-1.0544953e-16	1.71571e-19	-1.064606e-16	3.583379	0.1	0.01	1.1780972
0	-0.9326081	-0.35178083	0	-1.06573626e-16	1.7642032e-19	-1.0759201e-16	3.6079228	0.1	0.01	1.1780972
0	-0.92342025	-0.3758222	0	-1.07672916e-16	1.8125718e-19	-1.0869874e-16	3.6324666	0.1	0.01	1.1780972
0	-0.9134892	-0.39993927	0	-1.0874602e-16	1.8603854e-19	-1.09779315e-16	3.6570103	0.1	0.01	1.1780972
0	-0.9027836	-0.42412978	0	-1.0979033e-16	1.9076074e-19	-1.10831105e-16	3.6815538	0.1	0.01	1.1780972
0	-0.8911959	-0.44854042	0	-1.108013e-16	1.9544826e-19	-1.1184959e-16	3.7060976	0.1	0.01	1.1780972
0	-0.8787094	-0.4730947	0	-1.1177607e-16	2.0008112e-19	-1.1283183e-16	3.7306414	0.1	0.01	1.1780972
0	-0.86522305	-0.4978747	0	-1.127094e-16	2.0466894e-19	-1.1377258e-16	3.755185	0.1	0.01	1.1780972
0	-0.8507763	-0.5226931	0	-1.1359943e-16	2.0917082e-19	-1.1466988e-16	3.7797287	0.1	0.01	1.1780972
0	-0.83529025	-0.54757977	0	-1.1444111e-16	2.1358616e-19	-1.1551863e-16	3.8042724	0.1	0.01	1.1780972
0	-0.818788	-0.57239354	0	-1.1523211e-16	2.1788343e-19	-1.1631638e-16	3.828816	0.1	0.01	1.1780972
0	-0.8011067	-0.5972696	0	-1.1596442e-16	2.220789e-19	-1.1705508e-16	3.8533597	0.1	0.01	1.1780972
0	-0.78230965	-0.62200373	0	-1.1663666e-16	2.2612998e-19	-1.1773328e-16	3.8779035	0.1	0.01	1.1780972
0	-0.7624089	-0.6464877	0	-1.1724626e-16	2.300119e-19	-1.1834825e-16	3.9024472	0.1	0.01	1.1780972
0	-0.74146503	-0.6705716	0	-1.1779265e-16	2.33695e-19	-1.1889938e-16	3.9269907	0.1	0.01	1.1780972
0	-0.71953475	-0.6941358	0	-1.182757e-16	2.3715622e-19	-1.1938644e-16	3.9515345	0.1	0.01	1.1780972
0	-0.6967366	-0.7170211	0	-1.1869817e-16	2.4036915e-19	-1.1981216e-16	3.9760783	0.1	0.01	1.1780972
0	-0.6731986	-0.73909295	0	-1.1906411e-16	2.4331443e-19	-1.2018054e-16	4.000622	0.1	0.01	1.1780972
0	-0.6490503	-0.7602466	0	-1.1937838e-16	2.4597986e-19	-1.2049647e-16	4.0251656	0.1	0.01	1.1780972
0	-0.6244633	-0.78037006	0	-1.1964831e-16	2.483556e-19	-1.2076731e-16	4.0497093	0.1	0.01	1.1780972
0	-0.59984803	-0.79920644	0	-1.1989234e-16	2.504209e-19	-1.2101157e-16	4.074253	0.1	0.01	1.1780972
0	-0.57481664	-0.8171189	0	-1.200952e-16	2.5222412e-19	-1.2121403e-16	4.098797	0.1	0.01	1.1780972
0	-0.5495939	-0.83399236	0	-1.202677e-16	2.537601e-19	-1.2138559e-16	4.12334	0.1	0.01	1.1780972
0	-0.5243295	-0.84979045	0	-1.204179e-16	2.550348e-19	-1.2153438e-16	4.147884	0.1	0.01	1.1780972
0	-0.4990634	-0.864553	0	-1.2054905e-16	2.5606195e-19	-1.2166378e-16	4.1724277	0.1	0.01	1.1780972
0	-0.4738471	-0.8783121	0	-1.2066503e-16	2.568541e-19	-1.2177765e-16	4.1969714	0.1	0.01	1.1780972
0	-0.44874364	-0.8910929	0	-1.2077021e-16	2.574236e-19	-1.2188047e-16	4.221515	0.1	0.01	1.1780972
0	-0.42372644	-0.90296257	0	-1.208647e-16	2.577839e-19	-1.2197244e-16	4.246059	0.1	0.01	1.1780972
0	-0.39880383	-0.9139636	0	-1.2095015e-16	2.5794588e-19	-1.2205521e-16	4.2706027	0.1	0.01	1.1780972
0	-0.37393108	-0.92415476	0	-1.2102555e-16	2.5791923e-19	-1.2212779e-16	4.295146	0.1	0.01	1.1780972
0	-0.34928668	-0.9335039	0	-1.2110074e-16	2.577139e-19	-1.222001e-16	4.3196898	0.1	0.01	1.1780972
0	-0.32460237	-0.9421443	0	-1.2116351e-16	2.573353e-19	-1.2225995e-16	4.3442335	0.1	0.01	1.1780972
0	-0.3001695	-0.95000464	0	-1.2122935e-16	2.5679507e-19	-1.2232286e-16	4.3687773	0.1	0.01	1.1780972
0	-0.27566653	-0.95721257	0	-1.2128311e-16	2.5609194e-19	-1.2237367e-16	4.393321	0.1	0.01	1.1780972
0	-0.25125325	-0.9637381	0	-1.2133364e-16	2.552346e-19	-1.2242124e-16	4.417865	0.1	0.01	1.1780972
0	-0.22691219	-0.9696054	0	-1.2138089e-16	2.542271e-19	-1.2246557e-16	4.4424086	0.1	0.01	1.1780972
0	-0.20266908	-0.9748268	0	-1.2142698e-16	2.5307487e-19	-1.2250877e-16	4.466952	0.1	0.01	1.1780972
0	-0.17844355	-0.97943336	0	-1.2146861e-16	2.5177747e-19	-1.2254755e-16	4.4914956	0.1	0.01	1.1780972
0	-0.1542556	-0.9834321	0	-1.2150756e-16	2.5033848e-19	-1.225837e-16	4.5160394	0.1	0.01	1.1780972
0	-0.1301407	-0.9868283	0	-1.2154637e-16	2.4876268e-19	-1.2261976e-16	4.540583	0.1	0.01	1.1780972
0	-0.106057756	-0.9896373	0	-1.2158368e-16	2.470497e-19	-1.226544e-16	4.565127	0.1	0.01	1.1780972
0	-0.08200268	-0.9918666	0	-1.2161997e-16	2.4520092e-19	-1.2268806e-16	4.5896707	0.1	0.01	1.1780972
0	-0.057990167	-0.993521	0	-1.2165671e-16	2.4321891e-19	-1.2272224e-16	4.6142144	0.1	0.01	1.1780972
0	-0.03400267	-0.99460655	0	-1.2169369e-16	2.4110348e-19	-1.2275673e-16	4.6387577	0.1	0.01	1.1780972
0	-0.010039397	-0.99512714	0	-1.2173159e-16	2.3885536e-19	-1.227922e-16	4.6633015	0.1	0.01	1.1780972
0	0.013897872	-0.995085	0	-1.2177112e-16	2.364753e-19	-1.2282939e-16	4.687845	0.1	0.01	1.1780972
0	0.03781555	-0.99448186	0	-1.2181268e-16	2.339631e-19	-1.2286864e-16	4.712389	0.1	0.01	1.1780972
0	0.061714433	-0.99331784	0	-1.218569e-16	2.3131868e-19	-1.2291065e-16	4.7369328	0.1	0.01	1.1780972
0	0.08559494	-0.99159265	0	-1.2190441e-16	2.2854194e-19	-1.22956e-16	4.7614765	0.1	0.01	1.1780972
0	0.10946371	-0.98930365	0	-1.2195562e-16	2.2563163e-19	-1.230051e-16	4.7860203	0.1	0.01	1.1780972
0	0.13330233	-0.98645055	0	-1.2201208e-16	2.2258944e-19	-1.2305951e-16	4.8105636	0.1	0.01	1.1780972
0	0.15715453	-0.9830238	0	-1.2207226e-16	2.1940883e-19	-1.2311771e-16	4.8351073	0.1	0.01	1.1780972
0	0.18097022	-0.9790257	0	-1.2213941e-16	2.1609522e-19	-1.2318293e-16	4.859651	0.1	0.01	1.1780972
0	0.2048076	-0.9744399	0	-1.2221128e-16	2.1263904e-19	-1.2325289e-16	4.884195	0.1	0.01	1.1780972
0	0.22863209	-0.9692647	0	-1.2229032e-16	2.090432e-19	-1.2333006e-16	4.9087386	0.1	0.01	1.1780972
0	0.25247538	-0.9634834	0	-1.2237568e-16	2.0530066e-19	-1.2341357e-16	4.9332824	0.1	0.01	1.1780972
0	0.27632275	-0.9570876	0	-1.2246887e-16	2.014108e-19	-1.2350492e-16	4.957826	0.1	0.01	1.1780972
0	0.30022666	-0.9500487	0	-1.22568e-16	1.9736162e-19	-1.2360221e-16	4.9823694	0.1	0.01	1.1780972
0	0.32404962	-0.9423928	0	-1.2268072e-16	1.9317304e-19	-1.2371308e-16	5.006913	0.1	0.01	1.1780972
0	0.34807402	-0.93400913	0	-1.2279402e-16	1.887905e-19	-1.2382449e-16	5.031457	0.1	0.01	1.1780972
0	0.37196326	-0.9249919	0	-1.2292523e-16	1.8426994e-19	-1.2395374e-16	5.0560007	0.1	0.01	1.1780972
0	0.39598274	-0.91522086	0	-1.230624e-16	1.7955628e-19	-1.2408887e-16	5.0805445	0.1	0.01	1.1780972
0	0.41999808	-0.90471977	0	-1.23213e-16	1.7466856e-19	-1.2423733e-16	5.105088	0.1	0.01	1.1780972
0	0.44408292	-0.8934256	0	-1.2337464e-16	1.6958436e-19	-1.2439665e-16	5.1296315	0.1	0.01	1.1780972
0	0.46815792	-0.8813401	0	-1.2355213e-16	1.64312e-19	-1.2457165e-16	5.1541753	0.1	0.01	1.1780972
0	0.49229848	-0.86838585	0	-1.2374323e-16	1.5882548e-19	-1.2476004e-16	5.178719	0.1	0.01	1.1780972
0	0.516277	-0.8546468	0	-1.2395945e-16	1.5316744e-19	-1.2497328e-16	5.203263	0.1	0.01	1.1780972
0	0.5403168	-0.8399539	0	-1.2419204e-16	1.472753e-19	-1.2520256e-16	5.2278066	0.1	0.01	1.1780972
0	0.56425756	-0.82435095	0	-1.244494e-16	1.4117548e-19	-1.2545625e-16	5.2523503	0.1	0.01	1.1780972
0	0.58817977	-0.80773	0	-1.2472953e-16	1.3483414e-19	-1.2573225e-16	5.276894	0.1	0.01	1.1780972
0	0.61178833	-0.7902449	0	-1.2504614e-16	1.2831731e-19	-1.2604423e-16	5.3014374	0.1	0.01	1.1780972
0	0.635101	-0.7718441	0	-1.2539932e-16	1.216109e-19	-1.2639228e-16	5.325981	0.1	0.01	1.1780972
0	0.65803635	-0.75255126	0	-1.2579315e-16	1.1472862e-19	-1.2678045e-16	5.350525	0.1	0.01	1.1780972
0	0.6804755	-0.7324346	0	-1.262327e-16	1.0769858e-19	-1.2721373e-16	5.3750687	0.1	0.01	1.1780972
0	0.70230615	-0.7115773	0	-1.2672211e-16	1.0055174e-19	-1.2769633e-16	5.3996124	0.1	0.01	1.1780972
0	0.723432	-0.69006896	0	-1.2726434e-16	9.331906e-20	-1.2823119e-16	5.424156	0.1	0.01	1.1780972
0	0.74374986	-0.6680305	0	-1.2786186e-16	8.603967e-20	-1.2882086e-16	5.4487	0.1	0.01	1.1780972
0	0.7631881	-0.645573	0	-1.285154e-16	7.87472e-20	-1.294661e-16	5.473243	0.1	0.01	1.1780972
0	0.7817019	-0.62279797	0	-1.2922426e-16	7.147037e-20	-1.3016629e-16	5.497787	0.1	0.01	1.1780972
0	0.79925305	-0.59981596	0	-1.2998712e-16	6.423933e-20	-1.309202e-16	5.5223308	0.1	0.01	1.1780972
0	0.81583035	-0.57671756	0	-1.3080155e-16	5.707695e-20	-1.3172548e-16	5.5468745	0.1	0.01	1.1780972
0	0.8313761	-0.55367744	0	-1.3166616e-16	5.003061e-20	-1.3258083e-16	5.5714183	0.1	0.01	1.1780972
0	0.8460414	-0.5305596	0	-1.3257408e-16	4.305288e-20	-1.3347936e-16	5.595962	0.1	0.01	1.1780972
0	0.8597916	-0.50750285	0	-1.3352345e-16	3.6180305e-20	-1.3441936e-16	5.620506	0.1	0.01	1.1780972
0	0.8727183	-0.48443487	0	-1.3450956e-16	2.938662e-20	-1.3539607e-16	5.645049	0.1	0.01	1.1780972
0	0.8847492	-0.4615782	0	-1.3553141e-16	2.2732117e-20	-1.3640866e-16	5.669593	0.1	0.01	1.1780972
0	0.895962	-0.43888602	0	-1.3658487e-16	1.6197951e-20	-1.3745296e-16	5.6941366	0.1	0.01	1.1780972
0	0.906459	-0.41623017	0	-1.3766576e-16	9.743311e-21	-1.3852481e-16	5.7186804	0.1	0.01	1.1780972
0	0.91621566	-0.3937406	0	-1.3877253e-16	3.4017286e-21	-1.396227e-16	5.743224	0.1	0.01	1.1780972
0	0.9252841	-0.37137935	0	-1.3990237e-16	-2.841025e-21	-1.4074384e-16	5.767768	0.1	0.01	1.1780972
0	0.93369883	-0.3491337	0	-1.41053e-16	-8.991443e-21	-1.4188596e-16	5.7923117	0.1	0.01	1.1780972
0	0.9414882	-0.32699886	0	-1.4222236e-16	-1.5053454e-20	-1.4304699e-16	5.816855	0.1	0.01	1.1780972
0	0.94866645	-0.3050053	0	-1.4340875e-16	-2.1021183e-20	-1.4422528e-16	5.8413987	0.1	0.01	1.1780972
0	0.95528513	-0.28305423	0	-1.4461015e-16	-2.692338e-20	-1.4541874e-16	5.8659425	0.1	0.01	1.1780972
0	0.96135646	-0.2611562	0	-1.4582514e-16	-3.275869e-20	-1.4662601e-16	5.8904862	0.1	0.01	1.1780972
0	0.9668784	-0.23937742	0	-1.4705242e-16	-3.85111e-20	-1.4784579e-16	5.91503	0.1	0.01	1.1780972
0	0.9718807	-0.21766022	0	-1.4829057e-16	-4.419735e-20	-1.4907663e-16	5.939574	0.1	0.01	1.1780972
0	0.9763721	-0.19601987	0	-1.4953833e-16	-4.9814645e-20	-1.503173e-16	5.9641175	0.1	0.01	1.1780972
0	0.98036873	-0.17443252	0	-1.5079452e-16	-5.537028e-20	-1.5156662e-16	5.988661	0.1	0.01	1.1780972
0	0.98388106	-0.15288955	0	-1.5205798e-16	-6.086734e-20	-1.5282342e-16	6.0132046	0.1	0.01	1.1780972
0	0.9869141	-0.1314127	0	-1.5332768e-16	-6.630118e-20	-1.5408666e-16	6.0377483	0.1	0.01	1.1780972
0	0.98947704	-0.10999339	0	-1.5460252e-16	-7.16747e-20	-1.5535527e-16	6.062292	0.1	0.01	1.1780972
0	0.99157834	-0.08861727	0	-1.5588152e-16	-7.699221e-20	-1.5662824e-16	6.086836	0.1	0.01	1.1780972
0	0.99322385	-0.06728139	0	-1.5716367e-16	-8.225494e-20	-1.5790458e-16	6.1113796	0.1	0.01	1.1780972
0	0.9944179	-0.04598537	0	-1.5844803e-16	-8.746348e-20	-1.5918336e-16	6.1359234	0.1	0.01	1.1780972
0	0.99516475	-0.024728807	0	-1.5973367e-16	-9.261828e-20	-1.604636e-16	6.1604667	0.1	0.01	1.1780972
0	0.99546736	-0.0035110472	0	-1.6101963e-16	-9.771986e-20	-1.6174438e-16	6.1850104	0.1	0.01	1.1780972
0	0.9953287	0.01768195	0	-1.62305e-16	-1.0277184e-19	-1.6302478e-16	6.209554	0.1	0.01	1.1780972
0	0.9947503	0.038841188	0	-1.635889e-16	-1.0777215e-19	-1.6430392e-16	6.234098	0.1	0.01	1.1780972
0	0.9937336	0.059962776	0	-1.6487037e-16	-1.127201e-19	-1.655808e-16	6.2586417	0.1	0.01	1.1780972
0	0.9922779	0.08106946	0	-1.6614854e-16	-1.17621e-19	-1.668546e-16	6.2831855	0.1	0.01	1.1780972
0	0.9946359	0.04118701	0	-1.6737186e-16	-5.416076e-20	-1.6814045e-16	0	0.1	0.005	1.1780972
0	0.9935393	0.06274613	0	-1.6864856e-16	-5.668307e-20	-1.6941502e-16	0.024543693	0.1	0.005	1.1780972
0	0.99198467	0.08429593	0	-1.6992053e-16	-5.9181593e-20	-1.7068504e-16	0.049087387	0.1	0.005	1.1780972
0	0.9899707	0.10583446	0	-1.7118675e-16	-6.165604e-20	-1.719495e-16	0.07363108	0.1	0.005	1.1780972
0	0.9874955	0.12736237	0	-1.7244626e-16	-6.410636e-20	-1.7320742e-16	0.09817477	0.1	0.005	1.1780972
0	0.98455703	0.14887352	0	-1.7369804e-16	-6.653177e-20	-1.7445779e-16	0.12271846	0.1	0.005	1.1780972
0	0.9811524	0.17036763	0	-1.7494112e-16	-6.893206e-20	-1.7569963e-16	0.14726216	0.1	0.005	1.1780972
0	0.9772744	0.19186357	0	-1.7617441e-16	-7.130913e-20	-1.7693186e-16	0.17180584	0.1	0.005	1.1780972
0	0.97291315	0.21338125	0	-1.773968e-16	-7.366486e-20	-1.7815334e-16	0.19634955	0.1	0.005	1.1780972
0	0.96807736	0.23484853	0	-1.7860739e-16	-7.599109e-20	-1.7936318e-16	0.22089323	0.1	0.005	1.1780972
0	0.96273786	0.25636485	0	-1.7980473e-16	-7.8298254e-20	-1.8055995e-16	0.24543692	0.1	0.005	1.1780972
0	0.95690006	0.27786958	0	-1.8098783e-16	-8.0579353e-20	-1.8174263e-16	0.2699806	0.1	0.005	1.1780972
0	0.9504961	0.2995596	0	-1.821544e-16	-8.2854565e-20	-1.829089e-16	0.2945243	0.1	0.005	1.1780972
0	0.9435808	0.32118484	0	-1.8330426e-16	-8.509674e-20	-1.8405862e-16	0.319068	0.1	0.005	1.1780972
0	0.93615156	0.34274098	0	-1.8443633e-16	-8.73052e-20	-1.8519065e-16	0.3436117	0.1	0.005	1.1780972
0	0.92814386	0.3643746	0	-1.8554806e-16	-8.949429e-20	-1.8630246e-16	0.3681554	0.1	0.005	1.1780972
0	0.91961306	0.3858954	0	-1.8663947e-16	-9.164399e-20	-1.8739406e-16	0.3926991	0.1	0.005	1.1780972
0	0.91046745	0.40749744	0	-1.877073e-16	-9.377298e-20	-1.8846218e-16	0.41724277	0.1	0.005	1.1780972
0	0.9006846	0.4291732	0	-1.8874958e-16	-9.587923e-20	-1.895048e-16	0.44178647	0.1	0.005	1.1780972
0	0.8902924	0.4508086	0	-1.8976565e-16	-9.795049e-20	-1.9052127e-16	0.46633017	0.1	0.005	1.1780972
0	0.87928724	0.4723705	0	-1.9075398e-16	-9.998262e-20	-1.9151003e-16	0.49087384	0.1	0.005	1.1780972
0	0.86754173	0.49405283	0	-1.9170971e-16	-1.0199249e-19	-1.9246619e-16	0.5154175	0.1	0.005	1.1780972
0	0.85512084	0.5156714	0	-1.9263293e-16	-1.0396129e-19	-1.9338981e-16	0.5399612	0.1	0.005	1.1780972
0	0.84199864	0.537222	0	-1.935214e-16	-1.0588729e-19	-1.9427864e-16	0.5645049	0.1	0.005	1.1780972
0	0.8281541	0.55868834	0	-1.9437293e-16	-1.0776743e-19	-1.9513045e-16	0.5890486	0.1	0.005	1.1780972
0	0.81361705	0.5799775	0	-1.9518683e-16	-1.0959213e-19	-1.9594452e-16	0.6135923	0.1	0.005	1.1780972
0	0.7982888	0.60118544	0	-1.9595835e-16	-1.1136794e-19	-1.9671603e-16	0.638136	0.1	0.005	1.1780972
0	0.7824689	0.62187284	0	-1.966964e-16	-1.130572e-19	-1.9745393e-16	0.6626797	0.1	0.005	1.1780972
0	0.765635	0.64267594	0	-1.9738119e-16	-1.147101e-19	-1.9813833e-16	0.6872234	0.1	0.005	1.1780972
0	0.74814844	0.6630922	0	-1.9802407e-16	-1.1628446e-19	-1.9878061e-16	0.7117671	0.1	0.005	1.1780972
0	0.730009	0.6831003	0	-1.9862412e-16	-1.1777772e-19	-1.9937976e-16	0.7363108	0.1	0.005	1.1780972
0	0.71126467	0.7026334	0	-1.9918223e-16	-1.1918424e-19	-1.9993674e-16	0.7608545	0.1	0.005	1.1780972
0	0.69197196	0.72162765	0	-1.9970009e-16	-1.2049925e-19	-2.0045318e-16	0.7853982	0.1	0.005	1.1780972
0	0.67219514	0.74002373	0	-2.0017996e-16	-1.217188e-19	-2.0093137e-16	0.8099418	0.1	0.005	1.1780972
0	0.6520168	0.75775874	0	-2.0062511e-16	-1.2283945e-19	-2.0137459e-16	0.83448553	0.1	0.005	1.1780972
0	0.6314879	0.7748082	0	-2.0103792e-16	-1.2386082e-19	-2.0178526e-16	0.85902923	0.1	0.005	1.1780972
0	0.61068183	0.7911372	0	-2.0142185e-16	-1.2478239e-19	-2.0216687e-16	0.88357294	0.1	0.005	1.1780972
0	0.5896684	0.8067224	0	-2.0178052e-16	-1.2560477e-19	-2.0252301e-16	0.90811664	0.1	0.005	1.1780972
0	0.5685924	0.8214965	0	-2.0212107e-16	-1.2632713e-19	-2.0286099e-16	0.93266034	0.1	0.005	1.1780972
0	0.54731435	0.8355919	0	-2.0243796e-16	-1.2695837e-19	-2.0317516e-16	0.957204	0.1	0.005	1.1780972
0	0.5259441	0.848965	0	-2.0273686e-16	-1.2749871e-19	-2.0347132e-16	0.9817477	0.1	0.005	1.1780972
0	0.50447863	0.8616479	0	-2.030184e-16	-1.2795186e-19	-2.037501e-16	1.0062914	0.1	0.005	1.1780972
0	0.48307827	0.87358165	0	-2.0329094e-16	-1.2831869e-19	-2.0401988e-16	1.030835	0.1	0.005	1.1780972
0	0.46167922	0.8848365	0	-2.0355231e-16	-1.2860445e-19	-2.0427854e-16	1.0553788	0.1	0.005	1.1780972
0	0.44029272	0.8954353	0	-2.0380379e-16	-1.2881244e-19	-2.0452737e-16	1.0799224	0.1	0.005	1.1780972
0	0.4189249	0.9054015	0	-2.0404645e-16	-1.2894575e-19	-2.0476748e-16	1.1044662	0.1	0.005	1.1780972