# t (s)	mx ()	my ()	mz ()	E_total (J)	E_Zeeman (J)	E_custom (J)	Angle_bias (rad)	Field_bias (T)	Field_ext (T)	Angle_ext (rad)
0	0.99542475	-4.8196087e-09	0	-4.59482e-19	-0	-1.2818279e-18	0	0.1	0	1.5707964
0	0.99518603	0.022026617	0	-1.7406231e-18	-0	-2.563051e-18	0.024543693	0.1	0	1.5707964
0	0.99447334	0.04401021	0	-3.0199665e-18	-0	-3.842644e-18	0.049087387	0.1	0	1.5707964
0	0.993285	0.06600028	0	-4.2964766e-18	-0	-5.11957e-18	0.07363108	0.1	0	1.5707964
0	0.9916189	0.08799405	0	-5.5691118e-18	-0	-6.392786e-18	0.09817477	0.1	0	1.5707964
0	0.98947155	0.11000065	0	-6.8368157e-18	-0	-7.661234e-18	0.12271846	0.1	0	1.5707964
0	0.9868416	0.13199934	0	-8.098537e-18	-0	-8.923861e-18	0.14726216	0.1	0	1.5707964
0	0.9837182	0.15404384	0	-9.353132e-18	-0	-1.0179526e-17	0.17180584	0.1	0	1.5707964
0	0.98010176	0.1760845	0	-1.0599543e-17	-0	-1.1427163e-17	0.19634955	0.1	0	1.5707964
0	0.9759844	0.19813766	0	-1.1836609e-17	-0	-1.26656076e-17	0.22089323	0.1	0	1.5707964
0	0.97135615	0.22021598	0	-1.30631266e-17	-0	-1.3893656e-17	0.24543692	0.1	0	1.5707964
0	0.9662032	0.2423386	0	-1.4277799e-17	-0	-1.5110009e-17	0.2699806	0.1	0	1.5707964
0	0.9605289	0.26445073	0	-1.5479524e-17	-0	-1.6313549e-17	0.2945243	0.1	0	1.5707964
0	0.9542935	0.28665963	0	-1.6666541e-17	-0	-1.7502525e-17	0.319068	0.1	0	1.5707964
0	0.94752395	0.30882207	0	-1.7838042e-17	-0	-1.86761e-17	0.3436117	0.1	0	1.5707964
0	0.94018805	0.33100766	0	-1.8992284e-17	-0	-1.9832532e-17	0.3681554	0.1	0	1.5707964
0	0.9322489	0.35327458	0	-2.0127298e-17	-0	-2.0969847e-17	0.3926991	0.1	0	1.5707964
0	0.9236998	0.3755836	0	-2.124156e-17	-0	-2.20865e-17	0.41724277	0.1	0	1.5707964
0	0.9145151	0.39794537	0	-2.2333102e-17	-0	-2.3180514e-17	0.44178647	0.1	0	1.5707964
0	0.9046729	0.4203538	0	-2.3399952e-17	-0	-2.4249892e-17	0.46633017	0.1	0	1.5707964
0	0.89414495	0.44281167	0	-2.4439865e-17	-0	-2.5292372e-17	0.49087384	0.1	0	1.5707964
0	0.88290757	0.4653057	0	-2.5450595e-17	-0	-2.6305682e-17	0.5154175	0.1	0	1.5707964
0	0.870902	0.4878826	0	-2.642888e-17	-0	-2.7286533e-17	0.5399612	0.1	0	1.5707964
0	0.8581361	0.51045644	0	-2.7372983e-17	-0	-2.8233157e-17	0.5645049	0.1	0	1.5707964
0	0.84458584	0.53300357	0	-2.8280342e-17	-0	-2.9142946e-17	0.5890486	0.1	0	1.5707964
0	0.83023506	0.5554857	0	-2.9148528e-17	-0	-3.0013428e-17	0.6135923	0.1	0	1.5707964
0	0.8150977	0.57782245	0	-2.9975996e-17	-0	-3.0843014e-17	0.638136	0.1	0	1.5707964
0	0.79906416	0.6001105	0	-3.075736e-17	-0	-3.1626285e-17	0.6626797	0.1	0	1.5707964
0	0.78218824	0.6222078	0	-3.1492215e-17	-0	-3.2362786e-17	0.6872234	0.1	0	1.5707964
0	0.7644873	0.644039	0	-3.2179265e-17	-0	-3.3051166e-17	0.7117671	0.1	0	1.5707964
0	0.74600446	0.6655087	0	-3.2818298e-17	-0	-3.3691182e-17	0.7363108	0.1	0	1.5707964
0	0.7267689	0.6865515	0	-3.340894e-17	-0	-3.428243e-17	0.7608545	0.1	0	1.5707964
0	0.7069615	0.7069608	0	-3.3956866e-17	-0	-3.4830557e-17	0.7853982	0.1	0	1.5707964
0	0.6865526	0.7267678	0	-3.4460328e-17	-0	-3.5333817e-17	0.8099418	0.1	0	1.5707964
0	0.6655109	0.74600255	0	-3.4917587e-17	-0	-3.579047e-17	0.83448553	0.1	0	1.5707964
0	0.64403963	0.7644868	0	-3.5336474e-17	-0	-3.620838e-17	0.85902923	0.1	0	1.5707964
0	0.6222083	0.78218794	0	-3.5720074e-17	-0	-3.6590642e-17	0.88357294	0.1	0	1.5707964
0	0.60011464	0.7990612	0	-3.6072946e-17	-0	-3.6941873e-17	0.90811664	0.1	0	1.5707964
0	0.5778212	0.8150986	0	-3.6398465e-17	-0	-3.7265486e-17	0.93266034	0.1	0	1.5707964
0	0.55551815	0.83021396	0	-3.6705835e-17	-0	-3.757074e-17	0.957204	0.1	0	1.5707964
0	0.53300345	0.8445859	0	-3.6987063e-17	-0	-3.7849667e-17	0.9817477	0.1	0	1.5707964
0	0.5104688	0.858129	0	-3.7251593e-17	-0	-3.8111768e-17	1.0062914	0.1	0	1.5707964
0	0.4878288	0.8709314	0	-3.7496428e-17	-0	-3.8354085e-17	1.030835	0.1	0	1.5707964
0	0.46536732	0.88287616	0	-3.773573e-17	-0	-3.8590828e-17	1.0553788	0.1	0	1.5707964
0	0.44286752	0.8941183	0	-3.7960357e-17	-0	-3.881287e-17	1.0799224	0.1	0	1.5707964
0	0.4203515	0.90467393	0	-3.8172165e-17	-0	-3.9022106e-17	1.1044662	0.1	0	1.5707964
0	0.39800313	0.9144908	0	-3.8380853e-17	-0	-3.9228276e-17	1.1290098	0.1	0	1.5707964
0	0.37558547	0.923699	0	-3.8575813e-17	-0	-3.9420755e-17	1.1535536	0.1	0	1.5707964
0	0.3533641	0.93221617	0	-3.877079e-17	-0	-3.961335e-17	1.1780972	0.1	0	1.5707964
0	0.3310653	0.9401685	0	-3.8953083e-17	-0	-3.9793337e-17	1.2026409	0.1	0	1.5707964
0	0.3088499	0.94751537	0	-3.9131327e-17	-0	-3.9969387e-17	1.2271847	0.1	0	1.5707964
0	0.28664896	0.95429665	0	-3.9302772e-17	-0	-4.013875e-17	1.2517283	0.1	0	1.5707964
0	0.26446962	0.9605238	0	-3.946842e-17	-0	-4.0302446e-17	1.276272	0.1	0	1.5707964
0	0.24232703	0.96620584	0	-3.9629667e-17	-0	-4.0461874e-17	1.3008157	0.1	0	1.5707964
0	0.22021712	0.97135586	0	-3.9786928e-17	-0	-4.0617457e-17	1.3253593	0.1	0	1.5707964
0	0.198152	0.97598165	0	-3.994142e-17	-0	-4.077042e-17	1.3499031	0.1	0	1.5707964
0	0.17609148	0.9801006	0	-4.009167e-17	-0	-4.091929e-17	1.3744467	0.1	0	1.5707964
0	0.15402848	0.9837205	0	-4.023789e-17	-0	-4.1064283e-17	1.3989905	0.1	0	1.5707964
0	0.13202465	0.9868384	0	-4.0383814e-17	-0	-4.120914e-17	1.4235342	0.1	0	1.5707964
0	0.109992154	0.9894724	0	-4.052546e-17	-0	-4.134988e-17	1.4480779	0.1	0	1.5707964
0	0.087992705	0.991619	0	-4.0666578e-17	-0	-4.149025e-17	1.4726216	0.1	0	1.5707964
0	0.06599822	0.993285	0	-4.080625e-17	-0	-4.1629343e-17	1.4971652	0.1	0	1.5707964
0	0.04401134	0.99447334	0	-4.094515e-17	-0	-4.1767827e-17	1.521709	0.1	0	1.5707964
0	0.02202767	0.9951858	0	-4.10836e-17	-0	-4.1906025e-17	1.5462526	0.1	0	1.5707964
0	-1.5435649e-09	0.9954247	0	-4.1219654e-17	-0	-4.2042e-17	1.5707964	0.1	0	1.5707964
