# t (s)	mx ()	my ()	mz ()	E_total (J)	E_Zeeman (J)	E_custom (J)	Angle_bias (rad)	Field_bias (T)	Field_ext (T)	Angle_ext (rad)
0	0.9994509	0.0013691497	0	1.5374816e-20	-4.4069935e-22	-3.8239244e-19	0	0.1	0.00015	1.1780972
0	0.9991246	0.025594482	0	-3.6679104e-19	-4.6625946e-22	-7.6453605e-19	0.024543693	0.1	0.00015	1.1780972
0	0.9982124	0.049794868	0	-7.4826164e-19	-4.9153567e-22	-1.1459906e-18	0.049087387	0.1	0.00015	1.1780972
0	0.996713	0.07399412	0	-1.1285953e-18	-5.165525e-22	-1.5263145e-18	0.07363108	0.1	0.00015	1.1780972
0	0.9946283	0.09814506	0	-1.5073557e-18	-5.412609e-22	-1.9050712e-18	0.09817477	0.1	0.00015	1.1780972
0	0.99195755	0.12225334	0	-1.8841053e-18	-5.656664e-22	-2.2818226e-18	0.12271846	0.1	0.00015	1.1780972
0	0.9887022	0.14629613	0	-2.2584132e-18	-5.8974555e-22	-2.6561384e-18	0.14726216	0.1	0.00015	1.1780972
0	0.9848627	0.17026629	0	-2.6298491e-18	-6.134909e-22	-3.0275873e-18	0.17180584	0.1	0.00015	1.1780972
0	0.98043966	0.19415244	0	-2.997987e-18	-6.368907e-22	-3.3957437e-18	0.19634955	0.1	0.00015	1.1780972
0	0.9754344	0.21794082	0	-3.3624085e-18	-6.599308e-22	-3.760188e-18	0.22089323	0.1	0.00015	1.1780972
0	0.9698476	0.24162063	0	-3.7226966e-18	-6.8260015e-22	-4.120504e-18	0.24543692	0.1	0.00015	1.1780972
0	0.96368	0.2651817	0	-4.078441e-18	-7.0488834e-22	-4.476279e-18	0.2699806	0.1	0.00015	1.1780972
0	0.9569346	0.28860617	0	-4.4292436e-18	-7.267776e-22	-4.827117e-18	0.2945243	0.1	0.00015	1.1780972
0	0.9496125	0.31188214	0	-4.7747136e-18	-7.4825585e-22	-5.172625e-18	0.319068	0.1	0.00015	1.1780972
0	0.94171584	0.33499822	0	-5.114461e-18	-7.6931195e-22	-5.512413e-18	0.3436117	0.1	0.00015	1.1780972
0	0.93324655	0.35794145	0	-5.4481134e-18	-7.899329e-22	-5.8461077e-18	0.3681554	0.1	0.00015	1.1780972
0	0.92420936	0.38069284	0	-5.7753188e-18	-8.1010073e-22	-6.173357e-18	0.3926991	0.1	0.00015	1.1780972
0	0.91460544	0.40324414	0	-6.0957148e-18	-8.2980746e-22	-6.4937975e-18	0.41724277	0.1	0.00015	1.1780972
0	0.9044404	0.42557666	0	-6.40898e-18	-8.490353e-22	-6.807108e-18	0.44178647	0.1	0.00015	1.1780972
0	0.89371514	0.44768313	0	-6.7147685e-18	-8.677769e-22	-7.112941e-18	0.46633017	0.1	0.00015	1.1780972
0	0.88243693	0.4695426	0	-7.012801e-18	-8.860136e-22	-7.4110155e-18	0.49087384	0.1	0.00015	1.1780972
0	0.8706108	0.4911415	0	-7.302784e-18	-9.03733e-22	-7.701041e-18	0.5154175	0.1	0.00015	1.1780972
0	0.85823977	0.5124692	0	-7.584434e-18	-9.209251e-22	-7.98273e-18	0.5399612	0.1	0.00015	1.1780972
0	0.8453346	0.5335032	0	-7.8575375e-18	-9.375709e-22	-8.2558705e-18	0.5645049	0.1	0.00015	1.1780972
0	0.831898	0.5542354	0	-8.121839e-18	-9.536629e-22	-8.520204e-18	0.5890486	0.1	0.00015	1.1780972
0	0.81794226	0.57464343	0	-8.377178e-18	-9.691827e-22	-8.775572e-18	0.6135923	0.1	0.00015	1.1780972
0	0.803473	0.5947166	0	-8.623355e-18	-9.841218e-22	-9.021775e-18	0.638136	0.1	0.00015	1.1780972
0	0.7884967	0.6144431	0	-8.860198e-18	-9.984699e-22	-9.2586376e-18	0.6626797	0.1	0.00015	1.1780972
0	0.77303016	0.63379836	0	-9.087654e-18	-1.012209e-21	-9.48611e-18	0.6872234	0.1	0.00015	1.1780972
0	0.7570768	0.6527769	0	-9.305562e-18	-1.0253342e-21	-9.7040255e-18	0.7117671	0.1	0.00015	1.1780972
0	0.7406546	0.6713559	0	-9.513927e-18	-1.0378294e-21	-9.912396e-18	0.7363108	0.1	0.00015	1.1780972
0	0.7237893	0.689507	0	-9.712875e-18	-1.049676e-21	-1.0111341e-17	0.7608545	0.1	0.00015	1.1780972
0	0.7064554	0.70725715	0	-9.901985e-18	-1.0608911e-21	-1.0300443e-17	0.7853982	0.1	0.00015	1.1780972
0	0.6886904	0.72456634	0	-1.0081548e-17	-1.071449e-21	-1.0479992e-17	0.8099418	0.1	0.00015	1.1780972
0	0.6704983	0.74143094	0	-1.0251514e-17	-1.0813475e-21	-1.0649938e-17	0.83448553	0.1	0.00015	1.1780972
0	0.65189755	0.75783396	0	-1.0412011e-17	-1.0905765e-21	-1.0810409e-17	0.85902923	0.1	0.00015	1.1780972
0	0.63290846	0.7737587	0	-1.05632255e-17	-1.0991275e-21	-1.0961592e-17	0.88357294	0.1	0.00015	1.1780972
0	0.61353195	0.7892056	0	-1.0705123e-17	-1.1070013e-21	-1.1103453e-17	0.90811664	0.1	0.00015	1.1780972
0	0.59379935	0.80415094	0	-1.08380744e-17	-1.1141861e-21	-1.1236363e-17	0.93266034	0.1	0.00015	1.1780972
0	0.5737109	0.81859636	0	-1.0962077e-17	-1.1206844e-21	-1.1360319e-17	0.957204	0.1	0.00015	1.1780972
0	0.5532909	0.8325261	0	-1.1077457e-17	-1.1264899e-21	-1.1475648e-17	0.9817477	0.1	0.00015	1.1780972
0	0.5325523	0.8459336	0	-1.11844125e-17	-1.1316012e-21	-1.1582549e-17	1.0062914	0.1	0.00015	1.1780972
0	0.5115074	0.858813	0	-1.1283159e-17	-1.1360174e-21	-1.1681238e-17	1.030835	0.1	0.00015	1.1780972
0	0.49017364	0.87115574	0	-1.13739915e-17	-1.1397374e-21	-1.1772009e-17	1.0553788	0.1	0.00015	1.1780972
0	0.468569	0.88295406	0	-1.1457234e-17	-1.1427605e-21	-1.185519e-17	1.0799224	0.1	0.00015	1.1780972
0	0.44670114	0.894206	0	-1.1533088e-17	-1.1450884e-21	-1.1930979e-17	1.1044662	0.1	0.00015	1.1780972
0	0.4246	0.90489906	0	-1.1602079e-17	-1.1467207e-21	-1.1999906e-17	1.1290098	0.1	0.00015	1.1780972
0	0.4022625	0.91503733	0	-1.1664285e-17	-1.1476605e-21	-1.2062047e-17	1.1535536	0.1	0.00015	1.1780972
0	0.37971163	0.9246125	0	-1.1720162e-17	-1.1479093e-21	-1.2117859e-17	1.1780972	0.1	0.00015	1.1780972
0	0.3569604	0.9336219	0	-1.1770042e-17	-1.1474693e-21	-1.2167676e-17	1.2026409	0.1	0.00015	1.1780972
0	0.3340219	0.9420622	0	-1.1814271e-17	-1.1463435e-21	-1.2211843e-17	1.2271847	0.1	0.00015	1.1780972
0	0.3109116	0.9499305	0	-1.1853234e-17	-1.1445352e-21	-1.2250747e-17	1.2517283	0.1	0.00015	1.1780972
0	0.2876425	0.9572243	0	-1.1887296e-17	-1.1420477e-21	-1.2284751e-17	1.276272	0.1	0.00015	1.1780972
0	0.26422414	0.96394277	0	-1.19167775e-17	-1.138884e-21	-1.231418e-17	1.3008157	0.1	0.00015	1.1780972
0	0.24067314	0.97008294	0	-1.19421116e-17	-1.1350485e-21	-1.2339464e-17	1.3253593	0.1	0.00015	1.1780972
0	0.21700323	0.9756432	0	-1.1963699e-17	-1.1305453e-21	-1.23610066e-17	1.3499031	0.1	0.00015	1.1780972
0	0.19322419	0.9806229	0	-1.1981886e-17	-1.1253782e-21	-1.23791524e-17	1.3744467	0.1	0.00015	1.1780972
0	0.16935073	0.98502046	0	-1.1997099e-17	-1.1195519e-21	-1.23943295e-17	1.3989905	0.1	0.00015	1.1780972
0	0.14539301	0.98883533	0	-1.20097005e-17	-1.1130705e-21	-1.2406901e-17	1.4235342	0.1	0.00015	1.1780972
0	0.12136477	0.9920665	0	-1.2020111e-17	-1.1059387e-21	-1.2417287e-17	1.4480779	0.1	0.00015	1.1780972
0	0.097276025	0.9947136	0	-1.2028702e-17	-1.0981606e-21	-1.2425859e-17	1.4726216	0.1	0.00015	1.1780972
0	0.07314261	0.99677587	0	-1.2035932e-17	-1.0897424e-21	-1.2433077e-17	1.4971652	0.1	0.00015	1.1780972
0	0.048978668	0.99825287	0	-1.204224e-17	-1.0806899e-21	-1.24393795e-17	1.521709	0.1	0.00015	1.1780972
0	0.024768844	0.9991455	0	-1.2047606e-17	-1.0709968e-21	-1.2444746e-17	1.5462526	0.1	0.00015	1.1780972
0	0.0005660769	0.99945176	0	-1.2053073e-17	-1.0606851e-21	-1.24502205e-17	1.5707964	0.1	0.00015	1.1780972
0	-0.02364346	0.9991726	0	-1.2058647e-17	-1.0497489e-21	-1.2455809e-17	1.59534	0.1	0.00015	1.1780972
0	-0.04783874	0.998308	0	-1.2064876e-17	-1.0381983e-21	-1.24620574e-17	1.6198837	0.1	0.00015	1.1780972
0	-0.07201245	0.996858	0	-1.2072092e-17	-1.0260356e-21	-1.24693e-17	1.6444274	0.1	0.00015	1.1780972
0	-0.096152246	0.99482274	0	-1.2080704e-17	-1.013267e-21	-1.2477945e-17	1.6689711	0.1	0.00015	1.1780972
0	-0.120245464	0.9922026	0	-1.2091126e-17	-9.998983e-22	-1.24884064e-17	1.6935148	0.1	0.00015	1.1780972
0	-0.14428087	0.98899794	0	-1.2103742e-17	-9.859349e-22	-1.2501068e-17	1.7180585	0.1	0.00015	1.1780972
0	-0.16824576	0.9852094	0	-1.21189595e-17	-9.713829e-22	-1.2516337e-17	1.7426022	0.1	0.00015	1.1780972
0	-0.19212925	0.9808377	0	-1.2137153e-17	-9.56248e-22	-1.2534587e-17	1.7671459	0.1	0.00015	1.1780972
0	-0.21591681	0.9758838	0	-1.2158744e-17	-9.405374e-22	-1.2556239e-17	1.7916895	0.1	0.00015	1.1780972
0	-0.23959891	0.9703484	0	-1.2184078e-17	-9.242563e-22	-1.2581638e-17	1.8162333	0.1	0.00015	1.1780972
0	-0.26316106	0.96423316	0	-1.2213561e-17	-9.074125e-22	-1.2611192e-17	1.8407769	0.1	0.00015	1.1780972
0	-0.28659323	0.95753855	0	-1.2247532e-17	-8.900112e-22	-1.2645237e-17	1.8653207	0.1	0.00015	1.1780972
0	-0.3098792	0.95026726	0	-1.22864114e-17	-8.720624e-22	-1.26841935e-17	1.8898643	0.1	0.00015	1.1780972
0	-0.3330047	0.9424219	0	-1.2330578e-17	-8.53575e-22	-1.2728441e-17	1.914408	0.1	0.00015	1.1780972
0	-0.35596156	0.93400264	0	-1.2380318e-17	-8.345527e-22	-1.2778262e-17	1.9389517	0.1	0.00015	1.1780972
0	-0.37872916	0.9250149	0	-1.24360815e-17	-8.1501045e-22	-1.2834109e-17	1.9634954	0.1	0.00015	1.1780972
0	-0.40129805	0.91546017	0	-1.2498147e-17	-7.94954e-22	-1.28962594e-17	1.9880391	0.1	0.00015	1.1780972
0	-0.42365375	0.9053419	0	-1.2566855e-17	-7.7439337e-22	-1.2965052e-17	2.0125828	0.1	0.00015	1.1780972
0	-0.44578263	0.89466375	0	-1.2642516e-17	-7.533381e-22	-1.3040797e-17	2.0371265	0.1	0.00015	1.1780972
0	-0.467667	0.88343155	0	-1.2725489e-17	-7.318027e-22	-1.3123853e-17	2.06167	0.1	0.00015	1.1780972
0	-0.4892975	0.8716476	0	-1.2815993e-17	-7.0979326e-22	-1.32144394e-17	2.0862138	0.1	0.00015	1.1780972
0	-0.5106534	0.8593205	0	-1.2914394e-17	-6.8732847e-22	-1.33129186e-17	2.1107576	0.1	0.00015	1.1780972
0	-0.53171945	0.8464569	0	-1.3020958e-17	-6.644217e-22	-1.34195595e-17	2.1353014	0.1	0.00015	1.1780972
0	-0.5524874	0.8330592	0	-1.3135851e-17	-6.4107916e-22	-1.3534525e-17	2.1598449	0.1	0.00015	1.1780972
0	-0.5729314	0.8191418	0	-1.32594314e-17	-6.1732756e-22	-1.3658175e-17	2.1843886	0.1	0.00015	1.1780972
0	-0.59304667	0.80470574	0	-1.3391786e-17	-5.9317034e-22	-1.3790594e-17	2.2089324	0.1	0.00015	1.1780972
0	-0.61280876	0.7897669	0	-1.3533214e-17	-5.686347e-22	-1.393208e-17	2.233476	0.1	0.00015	1.1780972
0	-0.63221335	0.77432656	0	-1.3683751e-17	-5.437241e-22	-1.4082672e-17	2.2580197	0.1	0.00015	1.1780972
0	-0.6512325	0.7584053	0	-1.3843696e-17	-5.1847296e-22	-1.4242665e-17	2.2825634	0.1	0.00015	1.1780972
0	-0.66984916	0.74201727	0	-1.4013179e-17	-4.9290296e-22	-1.4412191e-17	2.3071072	0.1	0.00015	1.1780972
0	-0.68807626	0.72514933	0	-1.4191986e-17	-4.6699526e-22	-1.4591034e-17	2.3316507	0.1	0.00015	1.1780972
0	-0.7058736	0.70783776	0	-1.4380472e-17	-4.4080553e-22	-1.477955e-17	2.3561945	0.1	0.00015	1.1780972
0	-0.7232345	0.69008887	0	-1.4578587e-17	-4.1434383e-22	-1.4977688e-17	2.3807383	0.1	0.00015	1.1780972
0	-0.7401484	0.67191374	0	-1.4786307e-17	-3.876263e-22	-1.5185425e-17	2.4052818	0.1	0.00015	1.1780972
0	-0.75660455	0.6533242	0	-1.5003586e-17	-3.6067008e-22	-1.5402715e-17	2.4298255	0.1	0.00015	1.1780972
0	-0.77258456	0.6343416	0	-1.5230438e-17	-3.335062e-22	-1.5629571e-17	2.4543693	0.1	0.00015	1.1780972
0	-0.7880594	0.6150039	0	-1.546693e-17	-3.0618744e-22	-1.5866064e-17	2.478913	0.1	0.00015	1.1780972
0	-0.80306095	0.5952731	0	-1.5712555e-17	-2.7865978e-22	-1.6111682e-17	2.5034566	0.1	0.00015	1.1780972
0	-0.81755936	0.57518816	0	-1.5967359e-17	-2.5097747e-22	-1.6366472e-17	2.5280004	0.1	0.00015	1.1780972
0	-0.83154225	0.55476904	0	-1.6231194e-17	-2.2316703e-22	-1.6630293e-17	2.552544	0.1	0.00015	1.1780972
0	-0.845005	0.53402525	0	-1.6503843e-17	-1.9524079e-22	-1.6902918e-17	2.5770876	0.1	0.00015	1.1780972
0	-0.8579369	0.5129761	0	-1.67851e-17	-1.6722383e-22	-1.718415e-17	2.6016314	0.1	0.00015	1.1780972
0	-0.87033176	0.4916359	0	-1.7074715e-17	-1.3913412e-22	-1.7473737e-17	2.6261752	0.1	0.00015	1.1780972
0	-0.88218224	0.47002116	0	-1.737243e-17	-1.1099239e-22	-1.7771421e-17	2.6507187	0.1	0.00015	1.1780972
0	-0.8934846	0.4481433	0	-1.7677945e-17	-8.281231e-23	-1.8076902e-17	2.6752625	0.1	0.00015	1.1780972
0	-0.90423226	0.42601907	0	-1.7990965e-17	-5.461469e-23	-1.8389888e-17	2.6998062	0.1	0.00015	1.1780972
0	-0.9144181	0.40366894	0	-1.8311178e-17	-2.6424217e-23	-1.8710066e-17	2.72435	0.1	0.00015	1.1780972
0	-0.9240438	0.38109472	0	-1.8638217e-17	1.7579079e-24	-1.9037069e-17	2.7488935	0.1	0.00015	1.1780972
0	-0.9330994	0.35832465	0	-1.8971758e-17	2.9897166e-23	-1.9370573e-17	2.7734373	0.1	0.00015	1.1780972
0	-0.9415873	0.33535945	0	-1.9311412e-17	5.7993936e-23	-1.9710192e-17	2.797981	0.1	0.00015	1.1780972
0	-0.9495012	0.31222093	0	-1.9656816e-17	8.602238e-23	-2.0055563e-17	2.8225245	0.1	0.00015	1.1780972
0	-0.9568391	0.2889219	0	-2.000758e-17	1.1396804e-22	-2.0406296e-17	2.8470683	0.1	0.00015	1.1780972
0	-0.9636	0.2654723	0	-2.0363304e-17	1.4181976e-22	-2.076199e-17	2.871612	0.1	0.00015	1.1780972
0	-0.96978045	0.24188969	0	-2.0723587e-17	1.6955762e-22	-2.1122247e-17	2.8961558	0.1	0.00015	1.1780972
0	-0.97537994	0.21818379	0	-2.1088015e-17	1.9717092e-22	-2.1486652e-17	2.9206994	0.1	0.00015	1.1780972
0	-0.9803965	0.19436984	0	-2.1456167e-17	2.2464267e-22	-2.1854785e-17	2.9452431	0.1	0.00015	1.1780972
0	-0.98482955	0.17045712	0	-2.1827617e-17	2.519627e-22	-2.222622e-17	2.969787	0.1	0.00015	1.1780972
0	-0.9886777	0.1464611	0	-2.220194e-17	2.791141e-22	-2.2600535e-17	2.9943304	0.1	0.00015	1.1780972
0	-0.9919404	0.12239116	0	-2.2578704e-17	3.060867e-22	-2.2977294e-17	3.0188742	0.1	0.00015	1.1780972
0	-0.9946172	0.09825588	0	-2.2957466e-17	3.328711e-22	-2.3356057e-17	3.043418	0.1	0.00015	1.1780972
0	-0.9967066	0.07407771	0	-2.3337796e-17	3.5944284e-22	-2.3736391e-17	3.0679617	0.1	0.00015	1.1780972
0	-0.9982089	0.049862716	0	-2.3719247e-17	3.8579564e-22	-2.4117854e-17	3.0925052	0.1	0.00015	1.1780972
0	-0.99912363	0.025623737	0	-2.410138e-17	4.119156e-22	-2.4500003e-17	3.117049	0.1	0.00015	1.1780972
0	-0.99945074	0.0013686634	0	-2.4483749e-17	4.3779443e-22	-2.4882394e-17	3.1415927	0.1	0.00015	1.1780972
0	-0.99919003	-0.022883428	0	-2.4865914e-17	4.634118e-22	-2.5264587e-17	3.1661363	0.1	0.00015	1.1780972
0	-0.9983413	-0.04713225	0	-2.5247433e-17	4.887672e-22	-2.5646141e-17	3.19068	0.1	0.00015	1.1780972
0	-0.9969051	-0.07135204	0	-2.5627859e-17	5.138336e-22	-2.6026606e-17	3.2152238	0.1	0.00015	1.1780972
0	-0.9948812	-0.09554104	0	-2.6006757e-17	5.386092e-22	-2.640555e-17	3.2397673	0.1	0.00015	1.1780972
0	-0.99226993	-0.1196855	0	-2.6383688e-17	5.6307917e-22	-2.6782532e-17	3.264311	0.1	0.00015	1.1780972
0	-0.98907185	-0.14377068	0	-2.6758214e-17	5.8722846e-22	-2.7157112e-17	3.2888548	0.1	0.00015	1.1780972
0	-0.9852875	-0.16778596	0	-2.7129904e-17	6.1104595e-22	-2.7528862e-17	3.3133986	0.1	0.00015	1.1780972
0	-0.98091763	-0.1917186	0	-2.7498332e-17	6.3451836e-22	-2.7897358e-17	3.3379421	0.1	0.00015	1.1780972
0	-0.97596276	-0.21555835	0	-2.7863073e-17	6.5763514e-22	-2.8262164e-17	3.362486	0.1	0.00015	1.1780972
0	-0.97042423	-0.23928988	0	-2.822371e-17	6.8038074e-22	-2.8622874e-17	3.3870296	0.1	0.00015	1.1780972
0	-0.9643028	-0.26290435	0	-2.8579828e-17	7.0274567e-22	-2.897907e-17	3.4115732	0.1	0.00015	1.1780972
0	-0.9576004	-0.28638497	0	-2.893102e-17	7.247135e-22	-2.933034e-17	3.436117	0.1	0.00015	1.1780972
0	-0.95031816	-0.30972183	0	-2.927689e-17	7.462739e-22	-2.967629e-17	3.4606607	0.1	0.00015	1.1780972
0	-0.9424583	-0.33290052	0	-2.9617053e-17	7.674125e-22	-3.0016538e-17	3.4852045	0.1	0.00015	1.1780972
0	-0.9340269	-0.35589704	0	-2.995115e-17	7.8810673e-22	-3.035072e-17	3.509748	0.1	0.00015	1.1780972
0	-0.92501736	-0.37872228	0	-3.0278768e-17	8.0836513e-22	-3.0678418e-17	3.5342917	0.1	0.00015	1.1780972
0	-0.9154428	-0.40133697	0	-3.0599595e-17	8.281519e-22	-3.099933e-17	3.5588355	0.1	0.00015	1.1780972
0	-0.9053019	-0.42373857	0	-3.0913278e-17	8.474635e-22	-3.1313097e-17	3.583379	0.1	0.00015	1.1780972
0	-0.8945974	-0.44591492	0	-3.1219474e-17	8.662885e-22	-3.1619376e-17	3.6079228	0.1	0.00015	1.1780972
0	-0.88333553	-0.46784803	0	-3.1517894e-17	8.846105e-22	-3.1917876e-17	3.6324666	0.1	0.00015	1.1780972
0	-0.87152565	-0.48951414	0	-3.180827e-17	9.024084e-22	-3.220833e-17	3.6570103	0.1	0.00015	1.1780972
0	-0.85916525	-0.51091415	0	-3.2090273e-17	9.19682e-22	-3.2490407e-17	3.6815538	0.1	0.00015	1.1780972
0	-0.84626627	-0.5320225	0	-3.2363696e-17	9.364092e-22	-3.27639e-17	3.7060976	0.1	0.00015	1.1780972
0	-0.8328331	-0.5528277	0	-3.2628295e-17	9.525803e-22	-3.302856e-17	3.7306414	0.1	0.00015	1.1780972
0	-0.8188751	-0.5733121	0	-3.2883877e-17	9.681802e-22	-3.3284206e-17	3.755185	0.1	0.00015	1.1780972
0	-0.80440193	-0.5934586	0	-3.313027e-17	9.831952e-22	-3.3530656e-17	3.7797287	0.1	0.00015	1.1780972
0	-0.789417	-0.6132592	0	-3.336728e-17	9.976183e-22	-3.3767716e-17	3.8042724	0.1	0.00015	1.1780972
0	-0.77393764	-0.6326891	0	-3.3594855e-17	1.0114308e-21	-3.399533e-17	3.828816	0.1	0.00015	1.1780972
0	-0.75797075	-0.6517379	0	-3.3812857e-17	1.0246246e-21	-3.4213368e-17	3.8533597	0.1	0.00015	1.1780972
0	-0.74152875	-0.6703896	0	-3.402124e-17	1.0371884e-21	-3.442178e-17	3.8779035	0.1	0.00015	1.1780972
0	-0.7246162	-0.6886374	0	-3.4219886e-17	1.0491168e-21	-3.462045e-17	3.9024472	0.1	0.00015	1.1780972
0	-0.7072579	-0.70645404	0	-3.440892e-17	1.0603918e-21	-3.48095e-17	3.9269907	0.1	0.00015	1.1780972
0	-0.6894549	-0.7238385	0	-3.4588236e-17	1.0710129e-21	-3.4988823e-17	3.9515345	0.1	0.00015	1.1780972
0	-0.67125344	-0.74074703	0	-3.4758268e-17	1.0809537e-21	-3.5158852e-17	3.9760783	0.1	0.00015	1.1780972
0	-0.6526211	-0.75721073	0	-3.4918553e-17	1.0902332e-21	-3.531913e-17	4.000622	0.1	0.00015	1.1780972
0	-0.6335865	-0.7732033	0	-3.5069364e-17	1.0988363e-21	-3.546993e-17	4.0251656	0.1	0.00015	1.1780972
0	-0.614169	-0.7887097	0	-3.521089e-17	1.106755e-21	-3.561144e-17	4.0497093	0.1	0.00015	1.1780972
0	-0.5943853	-0.8037176	0	-3.534332e-17	1.113984e-21	-3.5743837e-17	4.074253	0.1	0.00015	1.1780972
0	-0.5742506	-0.81821764	0	-3.5466838e-17	1.1205198e-21	-3.5867322e-17	4.098797	0.1	0.00015	1.1780972
0	-0.55377483	-0.832204	0	-3.5581588e-17	1.1263608e-21	-3.5982032e-17	4.12334	0.1	0.00015	1.1780972
0	-0.53298134	-0.84566313	0	-3.5687894e-17	1.1315026e-21	-3.6088295e-17	4.147884	0.1	0.00015	1.1780972
0	-0.5118787	-0.8585914	0	-3.578593e-17	1.1359455e-21	-3.618628e-17	4.1724277	0.1	0.00015	1.1780972
0	-0.4904891	-0.8709779	0	-3.587605e-17	1.1396873e-21	-3.627635e-17	4.1969714	0.1	0.00015	1.1780972
0	-0.4688206	-0.8828201	0	-3.5958454e-17	1.142729e-21	-3.6358697e-17	4.221515	0.1	0.00015	1.1780972
0	-0.44689086	-0.89411086	0	-3.6033473e-17	1.1450708e-21	-3.6433656e-17	4.246059	0.1	0.00015	1.1780972
0	-0.4247228	-0.90484107	0	-3.6101537e-17	1.1467132e-21	-3.6501657e-17	4.2706027	0.1	0.00015	1.1780972
0	-0.40232024	-0.9150115	0	-3.616282e-17	1.1476587e-21	-3.656288e-17	4.295146	0.1	0.00015	1.1780972
0	-0.379703	-0.9246157	0	-3.621774e-17	1.1479088e-21	-3.661773e-17	4.3196898	0.1	0.00015	1.1780972
0	-0.35688162	-0.9336515	0	-3.626659e-17	1.1474662e-21	-3.6666518e-17	4.3442335	0.1	0.00015	1.1780972
0	-0.33387545	-0.9421137	0	-3.630981e-17	1.1463337e-21	-3.6709673e-17	4.3687773	0.1	0.00015	1.1780972
0	-0.3106933	-0.95000136	0	-3.634769e-17	1.1445144e-21	-3.6747492e-17	4.393321	0.1	0.00015	1.1780972
0	-0.28735006	-0.9573117	0	-3.6380618e-17	1.1420117e-21	-3.6780358e-17	4.417865	0.1	0.00015	1.1780972
0	-0.26386252	-0.96404123	0	-3.640903e-17	1.1388295e-21	-3.680871e-17	4.4424086	0.1	0.00015	1.1780972
0	-0.24024029	-0.9701897	0	-3.643326e-17	1.1349714e-21	-3.683288e-17	4.466952	0.1	0.00015	1.1780972
0	-0.21649615	-0.9757552	0	-3.645369e-17	1.1304413e-21	-3.6853255e-17	4.4914956	0.1	0.00015	1.1780972
0	-0.19264829	-0.9807356	0	-3.6470797e-17	1.1252447e-21	-3.6870312e-17	4.5160394	0.1	0.00015	1.1780972
0	-0.16869958	-0.98513156	0	-3.648483e-17	1.1193837e-21	-3.6884298e-17	4.540583	0.1	0.00015	1.1780972
0	-0.14467272	-0.98894036	0	-3.6496337e-17	1.1128654e-21	-3.6895763e-17	4.565127	0.1	0.00015	1.1780972
0	-0.12057301	-0.9921625	0	-3.6505628e-17	1.1056925e-21	-3.6905017e-17	4.5896707	0.1	0.00015	1.1780972
0	-0.09641348	-0.99479705	0	-3.651311e-17	1.0978701e-21	-3.6912462e-17	4.6142144	0.1	0.00015	1.1780972
0	-0.072210036	-0.9968433	0	-3.6519253e-17	1.0894041e-21	-3.6918576e-17	4.6387577	0.1	0.00015	1.1780972
0	-0.047970198	-0.9983014	0	-3.652438e-17	1.0802979e-21	-3.692368e-17	4.6633015	0.1	0.00015	1.1780972
0	-0.023709517	-0.9991707	0	-3.6528968e-17	1.070558e-21	-3.692825e-17	4.687845	0.1	0.00015	1.1780972
0	0.00056489784	-0.9994514	0	-3.6533345e-17	1.0601876e-21	-3.6932612e-17	4.712389	0.1	0.00015	1.1780972
0	0.024827637	-0.99914366	0	-3.653813e-17	1.0491977e-21	-3.693739e-17	4.7369328	0.1	0.00015	1.1780972
0	0.049106356	-0.9982462	0	-3.654312e-17	1.0375754e-21	-3.6942376e-17	4.7614765	0.1	0.00015	1.1780972
0	0.07334165	-0.9967608	0	-3.654944e-17	1.0253483e-21	-3.69487e-17	4.7860203	0.1	0.00015	1.1780972
0	0.097542755	-0.99468714	0	-3.6557184e-17	1.0125119e-21	-3.6956454e-17	4.8105636	0.1	0.00015	1.1780972
0	0.12169571	-0.99202555	0	-3.6566783e-17	9.990732e-22	-3.6966063e-17	4.8351073	0.1	0.00015	1.1780972
0	0.14578868	-0.9887767	0	-3.6578628e-17	9.850374e-22	-3.6977928e-17	4.859651	0.1	0.00015	1.1780972
0	0.16980815	-0.9849414	0	-3.6593144e-17	9.704119e-22	-3.6992467e-17	4.884195	0.1	0.00015	1.1780972
0	0.19374563	-0.98051983	0	-3.6610666e-17	9.552001e-22	-3.7010016e-17	4.9087386	0.1	0.00015	1.1780972
0	0.21758468	-0.97551346	0	-3.6631654e-17	9.394113e-22	-3.703103e-17	4.9332824	0.1	0.00015	1.1780972
0	0.2413171	-0.96992284	0	-3.665642e-17	9.230496e-22	-3.7055832e-17	4.957826	0.1	0.00015	1.1780972
0	0.26492637	-0.96374995	0	-3.6685414e-17	9.06124e-22	-3.7084863e-17	4.9823694	0.1	0.00015	1.1780972
0	0.28840223	-0.9569956	0	-3.6718974e-17	8.886401e-22	-3.7118463e-17	5.006913	0.1	0.00015	1.1780972
0	0.31173018	-0.9496622	0	-3.6757494e-17	8.706068e-22	-3.7157026e-17	5.031457	0.1	0.00015	1.1780972
0	0.33489376	-0.9417527	0	-3.6801388e-17	8.520347e-22	-3.720096e-17	5.0560007	0.1	0.00015	1.1780972
0	0.35788447	-0.933268	0	-3.685094e-17	8.3292827e-22	-3.7250557e-17	5.0805445	0.1	0.00015	1.1780972
0	0.38068655	-0.9242117	0	-3.6906536e-17	8.132979e-22	-3.7306196e-17	5.105088	0.1	0.00015	1.1780972
0	0.4032852	-0.91458714	0	-3.696853e-17	7.931544e-22	-3.7368238e-17	5.1296315	0.1	0.00015	1.1780972
0	0.42566925	-0.90439665	0	-3.7037217e-17	7.7250455e-22	-3.7436967e-17	5.1541753	0.1	0.00015	1.1780972
0	0.44781914	-0.8936467	0	-3.7112984e-17	7.513641e-22	-3.7512776e-17	5.178719	0.1	0.00015	1.1780972
0	0.4697239	-0.88234025	0	-3.7196092e-17	7.2974087e-22	-3.7595925e-17	5.203263	0.1	0.00015	1.1780972
0	0.49136648	-0.87048364	0	-3.7286877e-17	7.07649e-22	-3.7686742e-17	5.2278066	0.1	0.00015	1.1780972
0	0.5127334	-0.85808176	0	-3.7385592e-17	6.8509997e-22	-3.7785495e-17	5.2523503	0.1	0.00015	1.1780972
0	0.5338119	-0.8451395	0	-3.749248e-17	6.621042e-22	-3.7892413e-17	5.276894	0.1	0.00015	1.1780972
0	0.5545799	-0.83166826	0	-3.7607866e-17	6.386837e-22	-3.8007824e-17	5.3014374	0.1	0.00015	1.1780972
0	0.57502365	-0.81767493	0	-3.7731976e-17	6.148518e-22	-3.8131958e-17	5.325981	0.1	0.00015	1.1780972
0	0.59513634	-0.8031621	0	-3.7864894e-17	5.9061413e-22	-3.8264892e-17	5.350525	0.1	0.00015	1.1780972
0	0.6148922	-0.7881464	0	-3.800695e-17	5.659998e-22	-3.8406955e-17	5.3750687	0.1	0.00015	1.1780972
0	0.63427705	-0.77263737	0	-3.815829e-17	5.4102494e-22	-3.85583e-17	5.3996124	0.1	0.00015	1.1780972
0	0.6532626	-0.7566575	0	-3.83192e-17	5.1572616e-22	-3.8719206e-17	5.424156	0.1	0.00015	1.1780972
0	0.67186797	-0.74018985	0	-3.8489402e-17	4.900768e-22	-3.8889397e-17	5.4487	0.1	0.00015	1.1780972
0	0.6900677	-0.7232546	0	-3.866911e-17	4.6410967e-22	-3.9069087e-17	5.473243	0.1	0.00015	1.1780972
0	0.70783937	-0.70587176	0	-3.8858474e-17	4.3785577e-22	-3.9258432e-17	5.497787	0.1	0.00015	1.1780972
0	0.72516906	-0.6880554	0	-3.905753e-17	4.1133603e-22	-3.9457455e-17	5.5223308	0.1	0.00015	1.1780972
0	0.7420491	-0.66981363	0	-3.926621e-17	3.8456262e-22	-3.96661e-17	5.5468745	0.1	0.00015	1.1780972
0	0.75846285	-0.6511651	0	-3.9484524e-17	3.575625e-22	-3.988437e-17	5.5714183	0.1	0.00015	1.1780972
0	0.7744024	-0.6321201	0	-3.971238e-17	3.303502e-22	-4.0112175e-17	5.595962	0.1	0.00015	1.1780972
0	0.78985447	-0.6126956	0	-3.9949707e-17	3.0294942e-22	-4.0349443e-17	5.620506	0.1	0.00015	1.1780972
0	0.8048104	-0.5929044	0	-4.0196355e-17	2.7537763e-22	-4.0596033e-17	5.645049	0.1	0.00015	1.1780972
0	0.81925654	-0.57276684	0	-4.0452222e-17	2.4766236e-22	-4.085183e-17	5.669593	0.1	0.00015	1.1780972
0	0.8331881	-0.55229247	0	-4.0717092e-17	2.1981608e-22	-4.1116627e-17	5.6941366	0.1	0.00015	1.1780972
0	0.84659356	-0.53150123	0	-4.0990793e-17	1.9186468e-22	-4.139025e-17	5.7186804	0.1	0.00015	1.1780972
0	0.85946715	-0.510406	0	-4.127308e-17	1.6382446e-22	-4.1672456e-17	5.743224	0.1	0.00015	1.1780972
0	0.87180024	-0.48902488	0	-4.156372e-17	1.357184e-22	-4.196301e-17	5.767768	0.1	0.00015	1.1780972
0	0.8835894	-0.46736816	0	-4.1862426e-17	1.0755901e-22	-4.2261627e-17	5.7923117	0.1	0.00015	1.1780972
0	0.89482677	-0.4454545	0	-4.2168913e-17	7.9369643e-23	-4.2568025e-17	5.816855	0.1	0.00015	1.1780972
0	0.9055084	-0.4232971	0	-4.248287e-17	5.1165818e-23	-4.2881893e-17	5.8413987	0.1	0.00015	1.1780972
0	0.9156271	-0.4009159	0	-4.280399e-17	2.2971773e-23	-4.320292e-17	5.8659425	0.1	0.00015	1.1780972
0	0.9251811	-0.37832218	0	-4.3131907e-17	-5.1993846e-24	-4.3530744e-17	5.8904862	0.1	0.00015	1.1780972
0	0.934169	-0.3555237	0	-4.3466267e-17	-3.3339023e-23	-4.3865014e-17	5.91503	0.1	0.00015	1.1780972
0	0.9425854	-0.3325404	0	-4.3806708e-17	-6.142366e-23	-4.4205362e-17	5.939574	0.1	0.00015	1.1780972
0	0.95042795	-0.30938515	0	-4.4152853e-17	-8.9438437e-23	-4.4551415e-17	5.9641175	0.1	0.00015	1.1780972
0	0.9576932	-0.28607473	0	-4.4504312e-17	-1.1736426e-22	-4.4902788e-17	5.988661	0.1	0.00015	1.1780972
0	0.96438116	-0.26261672	0	-4.4860678e-17	-1.451929e-22	-4.5259068e-17	6.0132046	0.1	0.00015	1.1780972
0	0.97048926	-0.23902658	0	-4.5221544e-17	-1.7290693e-22	-4.5619858e-17	6.0377483	0.1	0.00015	1.1780972
0	0.97601575	-0.21531843	0	-4.558651e-17	-2.0049053e-22	-4.5984744e-17	6.062292	0.1	0.00015	1.1780972
0	0.98095953	-0.19150506	0	-4.5955144e-17	-2.279296e-22	-4.6353302e-17	6.086836	0.1	0.00015	1.1780972
0	0.9853196	-0.16759744	0	-4.6327028e-17	-2.5521223e-22	-4.672512e-17	6.1113796	0.1	0.00015	1.1780972
0	0.9890955	-0.14360864	0	-4.670172e-17	-2.8232426e-22	-4.709975e-17	6.1359234	0.1	0.00015	1.1780972
0	0.99228644	-0.119549304	0	-4.7078806e-17	-3.0925405e-22	-4.7476776e-17	6.1604667	0.1	0.00015	1.1780972
0	0.9948917	-0.09543327	0	-4.7457833e-17	-3.3598656e-22	-4.785575e-17	6.1850104	0.1	0.00015	1.1780972
0	0.99691105	-0.07127214	0	-4.7838366e-17	-3.6250943e-22	-4.8236237e-17	6.209554	0.1	0.00015	1.1780972
0	0.99834424	-0.04707498	0	-4.8219974e-17	-3.8881288e-22	-4.8617805e-17	6.234098	0.1	0.00015	1.1780972
0	0.9991908	-0.0228606	0	-4.860221e-17	-4.148768e-22	-4.9000006e-17	6.2586417	0.1	0.00015	1.1780972
0	0.9994509	0.0013691497	0	-4.8984627e-17	-4.4069935e-22	-4.9382395e-17	6.2831855	0.1	0.00015	1.1780972
