# t (s)	mx ()	my ()	mz ()	E_total (J)	Angle (rad)
0	1	0	0	9.671688e-19	0
0	0.99995005	0.009999832	0	9.671726e-19	0.01
0	0.99979997	0.019998666	0	9.671847e-19	0.02
0	0.99955	0.0299955	0	9.672041e-19	0.03
0	0.99920017	0.039989334	0	9.672316e-19	0.04
0	0.99875027	0.049979173	0	9.672669e-19	0.05
0	0.99820054	0.059964005	0	9.673099e-19	0.06
0	0.997551	0.06994285	0	9.673603e-19	0.07
0	0.99680173	0.0799147	0	9.674184e-19	0.08
0	0.9959528	0.089878544	0	9.674838e-19	0.09
0	0.9950041	0.09983342	0	9.675566e-19	0.1
0	0.99395615	0.1097783	0	9.676369e-19	0.11
0	0.9928085	0.1197122	0	9.677238e-19	0.12
0	0.99156195	0.12963416	0	9.678182e-19	0.13
0	0.99021596	0.13954313	0	9.679193e-19	0.14
0	0.988771	0.1494381	0	9.680268e-19	0.15
0	0.9872274	0.15931822	0	9.681413e-19	0.16
0	0.9855849	0.16918235	0	9.682614e-19	0.17
0	0.9838437	0.17902957	0	9.68388e-19	0.18
0	0.9820043	0.1888589	0	9.685206e-19	0.19
0	0.9800666	0.19866933	0	9.686586e-19	0.2
0	0.97803086	0.20845991	0	9.688025e-19	0.21
0	0.97589755	0.21822964	0	9.689516e-19	0.22
0	0.97366655	0.22797754	0	9.691056e-19	0.23
0	0.971338	0.23770262	0	9.69264e-19	0.24
0	0.9689125	0.24740396	0	9.694271e-19	0.25
0	0.9663901	0.2570806	0	9.695947e-19	0.26
0	0.96377105	0.26673147	0	9.697659e-19	0.27
0	0.9610555	0.27635562	0	9.699411e-19	0.28
0	0.958244	0.28595224	0	9.701196e-19	0.29
0	0.9553365	0.29552022	0	9.703013e-19	0.3
0	0.95233357	0.30505863	0	9.704859e-19	0.31
0	0.9492354	0.31456655	0	9.706728e-19	0.32
0	0.94604236	0.32404304	0	9.708621e-19	0.33
0	0.94275475	0.33348712	0	9.710534e-19	0.34
0	0.9393727	0.3428978	0	9.712463e-19	0.35
0	0.9358968	0.3522742	0	9.714407e-19	0.36
0	0.93232745	0.36161545	0	9.71636e-19	0.37
0	0.9286647	0.37092048	0	9.718318e-19	0.38
0	0.924909	0.38018844	0	9.720283e-19	0.39
0	0.9210609	0.3894183	0	9.722248e-19	0.4
0	0.91712075	0.39860937	0	9.724211e-19	0.41
0	0.91308904	0.40776047	0	9.726171e-19	0.42
0	0.90896577	0.41687083	0	9.728113e-19	0.43
0	0.9047516	0.4259395	0	9.730051e-19	0.44
0	0.90044713	0.43496552	0	9.731973e-19	0.45
0	0.8960525	0.44394812	0	9.733879e-19	0.46
0	0.89156824	0.45288625	0	9.735762e-19	0.47
0	0.8869951	0.46177927	0	9.737623e-19	0.48
0	0.8823329	0.4706259	0	9.739454e-19	0.49
0	0.8775826	0.47942558	0	9.741256e-19	0.5
0	0.8727445	0.48817724	0	9.743026e-19	0.51
0	0.86781925	0.49688014	0	9.744761e-19	0.52
0	0.86280715	0.5055333	0	9.746456e-19	0.53
0	0.8577087	0.514136	0	9.748112e-19	0.54
0	0.8525245	0.52268726	0	9.749724e-19	0.55
0	0.84725505	0.5311862	0	9.751288e-19	0.56
0	0.84190106	0.53963196	0	9.752804e-19	0.57
0	0.8364627	0.54802394	0	9.754271e-19	0.58
0	0.8309406	0.556361	0	9.75568e-19	0.59
0	0.8253356	0.56464255	0	9.757037e-19	0.6
0	0.819648	0.57286745	0	9.758334e-19	0.61
0	0.8138785	0.5810352	0	9.759573e-19	0.62
0	0.80802745	0.58914477	0	9.760749e-19	0.63
0	0.8020958	0.59719545	0	9.76186e-19	0.64
0	0.7960838	0.6051864	0	9.762908e-19	0.65
0	0.7899922	0.6131168	0	9.763887e-19	0.66
0	0.7838217	0.620986	0	9.764796e-19	0.67
0	0.77757275	0.62879306	0	9.765637e-19	0.68
0	0.7712461	0.63653725	0	9.766405e-19	0.69
0	0.76484215	0.64421767	0	9.767098e-19	0.7
0	0.75836194	0.6518338	0	9.76772e-19	0.71
0	0.75180566	0.65938467	0	9.768265e-19	0.72
0	0.7451744	0.66686964	0	9.768736e-19	0.73
0	0.7384686	0.674288	0	9.769129e-19	0.74
0	0.7316889	0.68163884	0	9.769445e-19	0.75
0	0.724836	0.6889214	0	9.769685e-19	0.76
0	0.71791065	0.6961352	0	9.769847e-19	0.77
0	0.71091354	0.7032794	0	9.769925e-19	0.78
0	0.7038454	0.71035326	0	9.769929e-19	0.79
0	0.69670665	0.717356	0	9.769854e-19	0.8
0	0.6894985	0.72428715	0	9.7697e-19	0.81
0	0.68222123	0.73114586	0	9.769469e-19	0.82
0	0.67487574	0.73793143	0	9.769157e-19	0.83
0	0.66746294	0.74464315	0	9.768771e-19	0.84
0	0.65998316	0.7512805	0	9.768306e-19	0.85
0	0.6524375	0.7578427	0	9.767767e-19	0.86
0	0.64482653	0.764329	0	9.767151e-19	0.87
0	0.6371511	0.77073884	0	9.766462e-19	0.88
0	0.62941206	0.7770718	0	9.765699e-19	0.89
0	0.62161	0.783327	0	9.764865e-19	0.9
0	0.6137458	0.7895038	0	9.76396e-19	0.91
0	0.6058202	0.79560155	0	9.762987e-19	0.92
0	0.597834	0.8016199	0	9.761945e-19	0.93
0	0.589788	0.8075582	0	9.76084e-19	0.94
0	0.5816831	0.8134156	0	9.759668e-19	0.95
0	0.57352	0.8191916	0	9.758436e-19	0.96
0	0.56529963	0.8248859	0	9.757143e-19	0.97
0	0.5570226	0.83049744	0	9.75579e-19	0.98
0	0.5486899	0.8360261	0	9.754385e-19	0.99
0	0.54030234	0.8414711	0	9.752924e-19	1
0	0.5318607	0.84683186	0	9.751409e-19	1.01
0	0.52336603	0.852108	0	9.749847e-19	1.02
0	0.5148189	0.85729915	0	9.748242e-19	1.03
0	0.5062202	0.8624042	0	9.746589e-19	1.04
0	0.49757105	0.8674233	0	9.744896e-19	1.05
0	0.48887208	0.8723556	0	9.743166e-19	1.06
0	0.4801242	0.8772005	0	9.741397e-19	1.07
0	0.47132838	0.8819579	0	9.739597e-19	1.08
0	0.4624854	0.88662714	0	9.73777e-19	1.09
0	0.45359614	0.8912074	0	9.735909e-19	1.1
0	0.4446616	0.89569885	0	9.734029e-19	1.11
0	0.43568242	0.9001006	0	9.732126e-19	1.12
0	0.42665985	0.9044121	0	9.730205e-19	1.13
0	0.41759455	0.90863365	0	9.728271e-19	1.14
0	0.4084874	0.912764	0	9.72632e-19	1.15
0	0.39933953	0.91680306	0	9.724363e-19	1.16
0	0.39015165	0.92075056	0	9.722402e-19	1.17
0	0.38092482	0.9246061	0	9.720437e-19	1.18
0	0.3716599	0.9283689	0	9.718474e-19	1.19
0	0.3623578	0.9320391	0	9.716513e-19	1.2
0	0.3530194	0.9356161	0	9.714559e-19	1.21
0	0.34364572	0.9390993	0	9.712616e-19	1.22
0	0.33423775	0.94248885	0	9.710687e-19	1.23
0	0.3247963	0.945784	0	9.708771e-19	1.24
0	0.31532237	0.9489846	0	9.706875e-19	1.25
0	0.30581695	0.95209044	0	9.705005e-19	1.26
0	0.2962809	0.95510095	0	9.703158e-19	1.27
0	0.2867152	0.95801586	0	9.701338e-19	1.28
0	0.2771209	0.9608351	0	9.699551e-19	1.29
0	0.26749882	0.9635582	0	9.697795e-19	1.3
0	0.25785005	0.96618503	0	9.696079e-19	1.31
0	0.24817547	0.9687152	0	9.694403e-19	1.32
0	0.23847605	0.9711484	0	9.692764e-19	1.33
0	0.2287528	0.9734845	0	9.691175e-19	1.34
0	0.2190067	0.9757233	0	9.689632e-19	1.35
0	0.20923866	0.97786456	0	9.688138e-19	1.36
0	0.19944972	0.9799081	0	9.686696e-19	1.37
0	0.18964085	0.9818536	0	9.685312e-19	1.38
0	0.17981297	0.9837008	0	9.683981e-19	1.39
0	0.16996713	0.98544973	0	9.682712e-19	1.4
0	0.1601043	0.9871001	0	9.681502e-19	1.41
0	0.15022548	0.98865175	0	9.680354e-19	1.42
0	0.14033161	0.9901045	0	9.679272e-19	1.43
0	0.13042371	0.99145836	0	9.678258e-19	1.44
0	0.12050276	0.992713	0	9.677309e-19	1.45
0	0.110569775	0.99386835	0	9.676431e-19	1.46
0	0.10062573	0.9949244	0	9.675626e-19	1.47
0	0.09067162	0.9958809	0	9.674892e-19	1.48
0	0.08070846	0.9967378	0	9.67423e-19	1.49
0	0.0707372	0.997495	0	9.673643e-19	1.5
0	0.060758878	0.99815255	0	9.673132e-19	1.51
0	0.050774485	0.99871016	0	9.672696e-19	1.52
0	0.04078501	0.9991679	0	9.672338e-19	1.53
0	0.03079146	0.9995259	0	9.672057e-19	1.54
0	0.02079483	0.99978375	0	9.671856e-19	1.55
0	0.010796118	0.99994177	0	9.671732e-19	1.56
0	0.00079632667	0.99999964	0	9.671686e-19	1.57
0	-0.009203544	0.99995774	0	9.671722e-19	1.58
0	-0.019202493	0.99981564	0	9.67183e-19	1.59
0	-0.029199526	0.9995737	0	9.672022e-19	1.6
0	-0.039193634	0.9992317	0	9.672288e-19	1.61
0	-0.049183827	0.9987896	0	9.672634e-19	1.62
0	-0.059169095	0.998248	0	9.673057e-19	1.63
0	-0.06914845	0.99760646	0	9.673556e-19	1.64
0	-0.07912089	0.99686503	0	9.67413e-19	1.65
0	-0.08908542	0.99602395	0	9.67478e-19	1.66
0	-0.09904104	0.99508333	0	9.675504e-19	1.67
0	-0.10898676	0.99404323	0	9.676298e-19	1.68
0	-0.11892157	0.9929036	0	9.677166e-19	1.69
0	-0.1288445	0.99166477	0	9.678102e-19	1.7
0	-0.13875453	0.9903268	0	9.679106e-19	1.71
0	-0.1486507	0.98888975	0	9.680177e-19	1.72
0	-0.15853196	0.9873539	0	9.681315e-19	1.73
0	-0.16839746	0.9857192	0	9.682515e-19	1.74
0	-0.17824605	0.98398596	0	9.683776e-19	1.75
0	-0.18807684	0.9821543	0	9.685096e-19	1.76
0	-0.19788882	0.9802245	0	9.686473e-19	1.77
0	-0.207681	0.9781966	0	9.687905e-19	1.78
0	-0.21745244	0.9760709	0	9.689391e-19	1.79
0	-0.22720207	0.9738476	0	9.690926e-19	1.8
0	-0.23692904	0.9715269	0	9.69251e-19	1.81
0	-0.24663232	0.9691092	0	9.694138e-19	1.82
0	-0.2563109	0.96659434	0	9.695808e-19	1.83
0	-0.26596388	0.96398294	0	9.697519e-19	1.84
0	-0.27559024	0.9612753	0	9.699268e-19	1.85
0	-0.28518906	0.9584713	0	9.70105e-19	1.86
0	-0.29475936	0.9555716	0	9.702865e-19	1.87
0	-0.30430016	0.9525762	0	9.704708e-19	1.88
0	-0.3138106	0.9494857	0	9.706578e-19	1.89
0	-0.3232895	0.94630027	0	9.708468e-19	1.9
0	-0.33273625	0.94302	0	9.71038e-19	1.91
0	-0.34214967	0.9396455	0	9.712306e-19	1.92
0	-0.35152882	0.93617713	0	9.714251e-19	1.93
0	-0.3608729	0.9326151	0	9.716201e-19	1.94
0	-0.37018088	0.9289598	0	9.718161e-19	1.95
0	-0.37945175	0.92521155	0	9.720125e-19	1.96
0	-0.38868478	0.92137086	0	9.72209e-19	1.97
0	-0.3978789	0.9174379	0	9.724052e-19	1.98
0	-0.40703318	0.91341335	0	9.726009e-19	1.99
0	-0.41614693	0.9092975	0	9.72796e-19	2
0	-0.42521888	0.90509063	0	9.729898e-19	2.01
0	-0.43424833	0.9007932	0	9.73182e-19	2.02
0	-0.4432344	0.89640576	0	9.733726e-19	2.03
0	-0.45217618	0.8919287	0	9.735611e-19	2.04
0	-0.46107268	0.88736236	0	9.737472e-19	2.05
0	-0.4699231	0.8827074	0	9.739306e-19	2.06
0	-0.47872657	0.8779641	0	9.741113e-19	2.07
0	-0.48748207	0.873133	0	9.742885e-19	2.08
0	-0.4961889	0.86821455	0	9.744622e-19	2.09
0	-0.5048461	0.86320937	0	9.746322e-19	2.1
0	-0.5134528	0.85811776	0	9.747979e-19	2.11
0	-0.5220082	0.8529405	0	9.749595e-19	2.12
0	-0.5305113	0.8476779	0	9.751164e-19	2.13
0	-0.53896147	0.84233046	0	9.752685e-19	2.14
0	-0.5473577	0.8368988	0	9.754154e-19	2.15
0	-0.55569917	0.83138347	0	9.755571e-19	2.16
0	-0.5639851	0.82578504	0	9.756932e-19	2.17
0	-0.5722146	0.82010406	0	9.758234e-19	2.18
0	-0.5803869	0.81434095	0	9.759475e-19	2.19
0	-0.5885011	0.80849636	0	9.760655e-19	2.2
0	-0.59655654	0.802571	0	9.761773e-19	2.21
0	-0.6045522	0.79656553	0	9.762825e-19	2.22
0	-0.6124877	0.7904804	0	9.763812e-19	2.23
0	-0.6203616	0.7843159	0	9.764727e-19	2.24
0	-0.62817377	0.7780732	0	9.76557e-19	2.25
0	-0.63592285	0.7717527	0	9.766348e-19	2.26
0	-0.6436085	0.76535505	0	9.767047e-19	2.27
0	-0.6512298	0.75888073	0	9.767673e-19	2.28
0	-0.6587857	0.75233066	0	9.768227e-19	2.29
0	-0.6662761	0.7457052	0	9.7687e-19	2.3
0	-0.6736997	0.7390052	0	9.7691e-19	2.31
0	-0.6810559	0.7322314	0	9.769423e-19	2.32
0	-0.68834394	0.72538435	0	9.769668e-19	2.33
0	-0.6955634	0.7184648	0	9.769832e-19	2.34
0	-0.70271313	0.7114734	0	9.769923e-19	2.35
0	-0.7097926	0.7044108	0	9.769933e-19	2.36
0	-0.71680105	0.6972778	0	9.769864e-19	2.37
0	-0.72373784	0.6900751	0	9.769713e-19	2.38
0	-0.73060244	0.68280333	0	9.769489e-19	2.39
0	-0.7373936	0.67546326	0	9.769187e-19	2.4
0	-0.7441113	0.6680556	0	9.768805e-19	2.41
0	-0.7507547	0.66058123	0	9.768347e-19	2.42
0	-0.7573228	0.65304077	0	9.767812e-19	2.43
0	-0.76381516	0.6454349	0	9.767201e-19	2.44
0	-0.77023137	0.63776475	0	9.766521e-19	2.45
0	-0.7765704	0.63003075	0	9.765765e-19	2.46
0	-0.7828316	0.62223357	0	9.764934e-19	2.47
0	-0.78901476	0.6143742	0	9.764038e-19	2.48
0	-0.7951189	0.60645354	0	9.763067e-19	2.49
0	-0.8011437	0.59847224	0	9.762034e-19	2.5
0	-0.8070882	0.5904309	0	9.760931e-19	2.51
0	-0.81295204	0.58233064	0	9.759764e-19	2.52
0	-0.8187346	0.5741721	0	9.758537e-19	2.53
0	-0.82443523	0.56595623	0	9.757247e-19	2.54
0	-0.83005357	0.55768377	0	9.755903e-19	2.55
0	-0.8355889	0.5493555	0	9.7545e-19	2.56
0	-0.84104043	0.5409722	0	9.753042e-19	2.57
0	-0.8464081	0.53253496	0	9.751534e-19	2.58
0	-0.85169095	0.52404433	0	9.749975e-19	2.59
0	-0.85688883	0.5155014	0	9.748369e-19	2.6
0	-0.8620008	0.50690687	0	9.746723e-19	2.61
0	-0.86702675	0.49826163	0	9.745032e-19	2.62
0	-0.871966	0.48956665	0	9.743308e-19	2.63
0	-0.8768179	0.48082262	0	9.74154e-19	2.64
0	-0.88158214	0.47203052	0	9.739742e-19	2.65
0	-0.88625836	0.4631913	0	9.737916e-19	2.66
0	-0.8908459	0.4543057	0	9.736061e-19	2.67
0	-0.8953443	0.4453746	0	9.734179e-19	2.68
0	-0.8997532	0.43639907	0	9.732279e-19	2.69
0	-0.90407217	0.42737988	0	9.73036e-19	2.7
0	-0.9083007	0.418318	0	9.728427e-19	2.71
0	-0.91243845	0.4092142	0	9.72648e-19	2.72
0	-0.91648483	0.4000695	0	9.724521e-19	2.73
0	-0.92043954	0.3908848	0	9.72256e-19	2.74
0	-0.9243024	0.381661	0	9.720597e-19	2.75
0	-0.9280727	0.37239903	0	9.718634e-19	2.76
0	-0.93175024	0.36309984	0	9.716669e-19	2.77
0	-0.9353347	0.35376438	0	9.714717e-19	2.78
0	-0.93882537	0.34439343	0	9.712771e-19	2.79
0	-0.94222236	0.33498815	0	9.710841e-19	2.8
0	-0.94552505	0.3255493	0	9.708926e-19	2.81
0	-0.9487332	0.31607804	0	9.707029e-19	2.82
0	-0.95184666	0.306575	0	9.705154e-19	2.83
0	-0.9548647	0.29704136	0	9.703303e-19	2.84
0	-0.95778733	0.287478	0	9.701486e-19	2.85
0	-0.9606141	0.2778859	0	9.699692e-19	2.86
0	-0.9633449	0.26826608	0	9.697936e-19	2.87
0	-0.96597946	0.25861934	0	9.696217e-19	2.88
0	-0.9685171	0.24894679	0	9.694534e-19	2.89
0	-0.97095805	0.23924933	0	9.692897e-19	2.9
0	-0.97330195	0.22952795	0	9.6913e-19	2.91
0	-0.97554874	0.21978363	0	9.689758e-19	2.92
0	-0.97769773	0.21001731	0	9.688258e-19	2.93
0	-0.979749	0.20023002	0	9.686814e-19	2.94
0	-0.98170227	0.19042265	0	9.685421e-19	2.95
0	-0.98355734	0.18059629	0	9.68409e-19	2.96
0	-0.985314	0.17075182	0	9.682812e-19	2.97
0	-0.9869724	0.16089031	0	9.681598e-19	2.98
0	-0.9885318	0.1510127	0	9.680446e-19	2.99
0	-0.9899926	0.14112	0	9.679358e-19	3
0	-0.99135405	0.13121319	0	9.678338e-19	3.01
0	-0.9926168	0.121293254	0	9.677387e-19	3.02
0	-0.99377996	0.11136119	0	9.676501e-19	3.03
0	-0.99484384	0.10141799	0	9.67569e-19	3.04
0	-0.9958085	0.091464646	0	9.674951e-19	3.05
0	-0.99667317	0.081502154	0	9.674283e-19	3.06
0	-0.99743843	0.07153152	0	9.673693e-19	3.07
0	-0.9981038	0.061553713	0	9.673174e-19	3.08
0	-0.9986694	0.051569764	0	9.672732e-19	3.09
0	-0.9991352	0.041580662	0	9.672365e-19	3.1
0	-0.999501	0.0315874	0	9.672081e-19	3.11
0	-0.99976695	0.021590974	0	9.671872e-19	3.12
0	-0.9999329	0.011592393	0	9.671741e-19	3.13
0	-0.99999887	0.0015926529	0	9.671689e-19	3.14
0	-0.99996465	-0.008407248	0	9.671717e-19	3.15
0	-0.9998306	-0.018406307	0	9.671821e-19	3.16
0	-0.9995966	-0.028403528	0	9.672008e-19	3.17
0	-0.99926263	-0.03839791	0	9.672268e-19	3.18
0	-0.99882865	-0.048388448	0	9.672605e-19	3.19
0	-0.9982948	-0.058374148	0	9.673024e-19	3.2
0	-0.9976613	-0.06835401	0	9.673518e-19	3.21
0	-0.9969278	-0.07832703	0	9.674083e-19	3.22
0	-0.9960947	-0.08829223	0	9.674729e-19	3.23
0	-0.9951619	-0.09824859	0	9.675446e-19	3.24
0	-0.99412984	-0.10819514	0	9.676238e-19	3.25
0	-0.992998	-0.11813085	0	9.677095e-19	3.26
0	-0.9917671	-0.12805477	0	9.678028e-19	3.27
0	-0.990437	-0.13796587	0	9.679025e-19	3.28
0	-0.98900783	-0.1478632	0	9.680092e-19	3.29
0	-0.98747987	-0.1577457	0	9.681227e-19	3.3
0	-0.985853	-0.16761243	0	9.682416e-19	3.31
0	-0.9841275	-0.17746243	0	9.683675e-19	3.32
0	-0.98230374	-0.18729468	0	9.684993e-19	3.33
0	-0.98038185	-0.19710821	0	9.686366e-19	3.34
0	-0.97836167	-0.20690197	0	9.687793e-19	3.35
0	-0.9762438	-0.21667507	0	9.689274e-19	3.36
0	-0.9740284	-0.22642656	0	9.690807e-19	3.37
0	-0.9717153	-0.2361553	0	9.692383e-19	3.38
0	-0.96930516	-0.2458605	0	9.69401e-19	3.39
0	-0.96679825	-0.25554112	0	9.695676e-19	3.4
0	-0.9641945	-0.26519614	0	9.697385e-19	3.41
0	-0.9614943	-0.27482468	0	9.699129e-19	3.42
0	-0.95869815	-0.28442565	0	9.700908e-19	3.43
0	-0.95580596	-0.2939983	0	9.702721e-19	3.44
0	-0.9528182	-0.30354154	0	9.704563e-19	3.45
0	-0.9497352	-0.31305438	0	9.706429e-19	3.46
0	-0.9465572	-0.3225359	0	9.708319e-19	3.47
0	-0.9432847	-0.33198518	0	9.71023e-19	3.48
0	-0.9399177	-0.3414013	0	9.712156e-19	3.49
0	-0.9364567	-0.35078323	0	9.714098e-19	3.5
0	-0.9329021	-0.3601301	0	9.716048e-19	3.51
0	-0.92925423	-0.36944094	0	9.718006e-19	3.52
0	-0.92551345	-0.37871486	0	9.719968e-19	3.53
0	-0.9216801	-0.387951	0	9.721934e-19	3.54
0	-0.9177545	-0.3971482	0	9.723897e-19	3.55
0	-0.91373724	-0.40630573	0	9.725857e-19	3.56
0	-0.90962845	-0.41542262	0	9.727806e-19	3.57
0	-0.9054288	-0.42449793	0	9.729745e-19	3.58
0	-0.9011387	-0.43353084	0	9.73167e-19	3.59
0	-0.8967584	-0.44252047	0	9.733576e-19	3.6
0	-0.89228845	-0.4514658	0	9.735464e-19	3.61
0	-0.88772935	-0.46036598	0	9.737329e-19	3.62
0	-0.88308126	-0.46922007	0	9.739166e-19	3.63
0	-0.87834495	-0.4780273	0	9.740973e-19	3.64
0	-0.8735209	-0.48678666	0	9.742747e-19	3.65
0	-0.8686094	-0.4954974	0	9.744486e-19	3.66
0	-0.8636111	-0.5041586	0	9.74619e-19	3.67
0	-0.8585265	-0.51276934	0	9.747853e-19	3.68
0	-0.8533559	-0.5213288	0	9.749469e-19	3.69
0	-0.8481002	-0.5298362	0	9.751044e-19	3.7
0	-0.8427593	-0.5382905	0	9.752567e-19	3.71
0	-0.83733445	-0.54669106	0	9.754039e-19	3.72
0	-0.8318257	-0.55503696	0	9.75546e-19	3.73
0	-0.82623386	-0.56332725	0	9.756824e-19	3.74
0	-0.8205594	-0.57156134	0	9.758132e-19	3.75
0	-0.81480277	-0.5797382	0	9.759379e-19	3.76
0	-0.8089648	-0.5878571	0	9.760567e-19	3.77
0	-0.80304587	-0.5959172	0	9.761687e-19	3.78
0	-0.7970467	-0.6039178	0	9.762745e-19	3.79
0	-0.7909677	-0.6118579	0	9.763735e-19	3.8
0	-0.7848097	-0.61973685	0	9.764656e-19	3.81
0	-0.7785732	-0.6275538	0	9.76551e-19	3.82
0	-0.7722589	-0.6353081	0	9.76629e-19	3.83
0	-0.76586723	-0.6429988	0	9.766994e-19	3.84
0	-0.7593991	-0.65062505	0	9.767628e-19	3.85
0	-0.75285494	-0.6581865	0	9.768184e-19	3.86
0	-0.7462356	-0.665682	0	9.768668e-19	3.87
0	-0.73954153	-0.67311096	0	9.769073e-19	3.88
0	-0.73277354	-0.6804726	0	9.769402e-19	3.89
0	-0.72593236	-0.68776625	0	9.769652e-19	3.9
0	-0.7190185	-0.69499093	0	9.769824e-19	3.91
0	-0.71203274	-0.70214635	0	9.769918e-19	3.92
0	-0.7049757	-0.7092314	0	9.769935e-19	3.93
0	-0.6978483	-0.7162455	0	9.769871e-19	3.94
0	-0.6906511	-0.7231881	0	9.76973e-19	3.95
0	-0.6833848	-0.7300585	0	9.76951e-19	3.96
0	-0.67605025	-0.73685557	0	9.769213e-19	3.97
0	-0.6686479	-0.7435791	0	9.768838e-19	3.98
0	-0.66117877	-0.7502282	0	9.768385e-19	3.99
0	-0.6536436	-0.75680256	0	9.767857e-19	4
0	-0.646043	-0.76330096	0	9.767254e-19	4.01
0	-0.6383779	-0.7697233	0	9.766578e-19	4.02
0	-0.6306489	-0.7760684	0	9.765827e-19	4.03
0	-0.62285674	-0.78233594	0	9.765003e-19	4.04
0	-0.6150024	-0.7885253	0	9.764109e-19	4.05
0	-0.6070865	-0.7946358	0	9.763147e-19	4.06
0	-0.5991099	-0.8006668	0	9.762118e-19	4.07
0	-0.5910734	-0.80661774	0	9.76102e-19	4.08
0	-0.5829779	-0.812488	0	9.759859e-19	4.09
0	-0.5748239	-0.8182771	0	9.758635e-19	4.1
0	-0.5666126	-0.82398444	0	9.757353e-19	4.11
0	-0.55834454	-0.8296092	0	9.756009e-19	4.12
0	-0.5500207	-0.83515114	0	9.754612e-19	4.13
0	-0.54164183	-0.84060943	0	9.753157e-19	4.14
0	-0.5332088	-0.84598386	0	9.751657e-19	4.15
0	-0.52472246	-0.8512734	0	9.750101e-19	4.16
0	-0.5161835	-0.85647804	0	9.748499e-19	4.17
0	-0.50759315	-0.86159694	0	9.746854e-19	4.18
0	-0.498952	-0.8666298	0	9.745169e-19	4.19
0	-0.49026078	-0.8715758	0	9.743444e-19	4.2
0	-0.48152065	-0.8764346	0	9.741681e-19	4.21
0	-0.47273242	-0.88120604	0	9.739884e-19	4.22
0	-0.4638969	-0.88588923	0	9.73806e-19	4.23
0	-0.45501494	-0.89048374	0	9.736207e-19	4.24
0	-0.44608748	-0.8949893	0	9.734328e-19	4.25
0	-0.43711543	-0.89940536	0	9.732428e-19	4.26
0	-0.42809966	-0.9037315	0	9.73051e-19	4.27
0	-0.4190411	-0.90796727	0	9.728577e-19	4.28
0	-0.40994066	-0.91211236	0	9.726634e-19	4.29
0	-0.4007992	-0.91616595	0	9.724676e-19	4.3
0	-0.39161766	-0.920128	0	9.722716e-19	4.31
0	-0.3823969	-0.92399824	0	9.72075e-19	4.32
0	-0.37313798	-0.92777586	0	9.718786e-19	4.33
0	-0.3638417	-0.9314608	0	9.716824e-19	4.34
0	-0.35450906	-0.9350525	0	9.714869e-19	4.35
0	-0.345141	-0.93855095	0	9.712926e-19	4.36
0	-0.33573833	-0.94195527	0	9.710991e-19	4.37
0	-0.32630217	-0.9452656	0	9.709074e-19	4.38
0	-0.31683335	-0.94848114	0	9.707176e-19	4.39
0	-0.30733284	-0.95160216	0	9.705301e-19	4.4
0	-0.29780167	-0.9546279	0	9.703451e-19	4.41
0	-0.2882406	-0.95755804	0	9.701624e-19	4.42
0	-0.27865082	-0.96039265	0	9.699833e-19	4.43
0	-0.2690331	-0.9631309	0	9.698071e-19	4.44
0	-0.25938854	-0.9657731	0	9.696352e-19	4.45
0	-0.24971798	-0.96831864	0	9.694666e-19	4.46
0	-0.24002248	-0.97076744	0	9.693024e-19	4.47
0	-0.23030297	-0.973119	0	9.691426e-19	4.48
0	-0.2205604	-0.97537327	0	9.689875e-19	4.49
0	-0.21079579	-0.97753024	0	9.688373e-19	4.5
0	-0.20101012	-0.9795892	0	9.686924e-19	4.51
0	-0.19120435	-0.9815503	0	9.685529e-19	4.52
0	-0.18137947	-0.9834134	0	9.684192e-19	4.53
0	-0.1715364	-0.9851779	0	9.682912e-19	4.54
0	-0.16167623	-0.98684394	0	9.681691e-19	4.55
0	-0.15179987	-0.9884112	0	9.680534e-19	4.56
0	-0.14190833	-0.98987985	0	9.679442e-19	4.57
0	-0.13200259	-0.99124944	0	9.678414e-19	4.58
0	-0.12208367	-0.9925198	0	9.677456e-19	4.59
0	-0.11215253	-0.99369097	0	9.676568e-19	4.6
0	-0.10221017	-0.99476284	0	9.675749e-19	4.61
0	-0.092257604	-0.9957351	0	9.675002e-19	4.62
0	-0.0822958	-0.99660796	0	9.674329e-19	4.63
0	-0.07232577	-0.9973811	0	9.67373e-19	4.64
0	-0.062348515	-0.99805444	0	9.673208e-19	4.65
0	-0.05236502	-0.99862796	0	9.672761e-19	4.66
0	-0.04237629	-0.9991017	0	9.672389e-19	4.67
0	-0.03238332	-0.99947554	0	9.672097e-19	4.68
0	-0.022387113	-0.99974954	0	9.671884e-19	4.69
0	-0.012388665	-0.99992335	0	9.671748e-19	4.7
0	-0.002388978	-0.9999971	0	9.671688e-19	4.71
0	0.007610946	-0.99997103	0	9.671708e-19	4.72
0	0.01761011	-0.9998451	0	9.671808e-19	4.73
0	0.027607514	-0.99961895	0	9.671988e-19	4.74
0	0.03760215	-0.9992928	0	9.672243e-19	4.75
0	0.04759304	-0.9988667	0	9.672574e-19	4.76
0	0.057579156	-0.99834096	0	9.672984e-19	4.77
0	0.06755952	-0.99771535	0	9.67347e-19	4.78
0	0.07753313	-0.9969897	0	9.674033e-19	4.79
0	0.087498985	-0.9961646	0	9.674671e-19	4.8
0	0.09745608	-0.99523985	0	9.675384e-19	4.81
0	0.10740344	-0.99421555	0	9.676168e-19	4.82
0	0.11734008	-0.9930919	0	9.677023e-19	4.83
0	0.12726496	-0.9918688	0	9.677949e-19	4.84
0	0.13717712	-0.99054664	0	9.678944e-19	4.85
0	0.14707556	-0.98912525	0	9.680003e-19	4.86
0	0.15695928	-0.9876051	0	9.68113e-19	4.87
0	0.16682734	-0.98598605	0	9.682318e-19	4.88
0	0.17667869	-0.98426855	0	9.683571e-19	4.89
0	0.18651237	-0.9824527	0	9.684882e-19	4.9
0	0.19632742	-0.98053855	0	9.686251e-19	4.91
0	0.20612285	-0.9785263	0	9.687676e-19	4.92
0	0.21589762	-0.97641593	0	9.689151e-19	4.93
0	0.22565082	-0.97420835	0	9.69068e-19	4.94
0	0.23538142	-0.97190315	0	9.692253e-19	4.95
0	0.24508852	-0.96950084	0	9.693875e-19	4.96
0	0.25477114	-0.9670014	0	9.69554e-19	4.97
0	0.26442826	-0.9644054	0	9.697244e-19	4.98
0	0.2740589	-0.9617129	0	9.698987e-19	4.99
0	0.2836622	-0.9589243	0	9.700764e-19	5
0	0.29323712	-0.9560397	0	9.702575e-19	5.01
0	0.30278268	-0.95305985	0	9.704414e-19	5.02
0	0.31229797	-0.9499842	0	9.706277e-19	5.03
0	0.321782	-0.94681376	0	9.708164e-19	5.04
0	0.33123392	-0.9435487	0	9.710074e-19	5.05
0	0.34065273	-0.9401893	0	9.712001e-19	5.06
0	0.3500374	-0.93673575	0	9.71394e-19	5.07
0	0.3593871	-0.9331886	0	9.715889e-19	5.08
0	0.3687009	-0.92954814	0	9.71785e-19	5.09
0	0.37797773	-0.92581475	0	9.719812e-19	5.1
0	0.38721687	-0.9219887	0	9.721778e-19	5.11
0	0.39641726	-0.9180705	0	9.72374e-19	5.12
0	0.40557793	-0.9140605	0	9.725698e-19	5.13
0	0.41469812	-0.909959	0	9.72765e-19	5.14
0	0.42377678	-0.90576667	0	9.729589e-19	5.15
0	0.4328131	-0.9014837	0	9.731515e-19	5.16
0	0.44180617	-0.8971106	0	9.733424e-19	5.17
0	0.45075503	-0.8926477	0	9.735313e-19	5.18
0	0.45965892	-0.8880957	0	9.737179e-19	5.19
0	0.46851668	-0.8834546	0	9.739018e-19	5.2
0	0.47732767	-0.8787254	0	9.740827e-19	5.21
0	0.4860909	-0.8739083	0	9.742605e-19	5.22
0	0.49480557	-0.86900383	0	9.74435e-19	5.23
0	0.5034707	-0.8640124	0	9.746055e-19	5.24
0	0.5120855	-0.8589346	0	9.74772e-19	5.25
0	0.5206491	-0.85377085	0	9.749341e-19	5.26
0	0.5291606	-0.8485217	0	9.75092e-19	5.27
0	0.53761923	-0.84318775	0	9.752446e-19	5.28
0	0.546024	-0.8377695	0	9.753925e-19	5.29
0	0.5543743	-0.83226746	0	9.755347e-19	5.3
0	0.56266916	-0.82668227	0	9.75672e-19	5.31
0	0.5709078	-0.8210143	0	9.758033e-19	5.32
0	0.5790892	-0.81526417	0	9.759283e-19	5.33
0	0.58721274	-0.8094326	0	9.760474e-19	5.34
0	0.59527767	-0.8035203	0	9.761602e-19	5.35
0	0.6032828	-0.7975273	0	9.762663e-19	5.36
0	0.6112279	-0.79145485	0	9.763659e-19	5.37
0	0.6191117	-0.785303	0	9.764586e-19	5.38
0	0.62693363	-0.7790727	0	9.765442e-19	5.39
0	0.6346929	-0.7727645	0	9.766227e-19	5.4
0	0.6423887	-0.7663791	0	9.766941e-19	5.41
0	0.65002024	-0.759917	0	9.76758e-19	5.42
0	0.65758675	-0.75337887	0	9.768143e-19	5.43
0	0.6650875	-0.74676543	0	9.76863e-19	5.44
0	0.6725218	-0.7400773	0	9.769044e-19	5.45
0	0.67988884	-0.73331517	0	9.769376e-19	5.46
0	0.68718785	-0.72647977	0	9.769634e-19	5.47
0	0.6944182	-0.71957177	0	9.769815e-19	5.48
0	0.70157903	-0.71259165	0	9.769913e-19	5.49
0	0.70866984	-0.7055403	0	9.769935e-19	5.5
0	0.7156896	-0.69841844	0	9.769879e-19	5.51
0	0.72263783	-0.69122684	0	9.769743e-19	5.52
0	0.7295139	-0.683966	0	9.76953e-19	5.53
0	0.7363169	-0.67663676	0	9.769238e-19	5.54
0	0.7430464	-0.6692399	0	9.768871e-19	5.55
0	0.74970156	-0.661776	0	9.768424e-19	5.56
0	0.75628173	-0.65424603	0	9.767901e-19	5.57
0	0.76278627	-0.64665073	0	9.767304e-19	5.58
0	0.7692147	-0.6389907	0	9.766635e-19	5.59
0	0.77556586	-0.6312667	0	9.765889e-19	5.6
0	0.78183967	-0.62347955	0	9.765072e-19	5.61
0	0.7880353	-0.6156301	0	9.764185e-19	5.62
0	0.7941521	-0.6077191	0	9.763227e-19	5.63
0	0.8001896	-0.5997473	0	9.762204e-19	5.64
0	0.80614674	-0.5917156	0	9.76111e-19	5.65
0	0.8120235	-0.58362466	0	9.759953e-19	5.66
0	0.8178192	-0.5754754	0	9.758737e-19	5.67
0	0.8235329	-0.56726855	0	9.757458e-19	5.68
0	0.82916427	-0.55900496	0	9.75612e-19	5.69
0	0.8347128	-0.5506856	0	9.754726e-19	5.7
0	0.84017783	-0.542311	0	9.753277e-19	5.71
0	0.8455589	-0.53388226	0	9.751777e-19	5.72
0	0.8508553	-0.52540004	0	9.750226e-19	5.73
0	0.85606694	-0.5168655	0	9.748632e-19	5.74
0	0.86119246	-0.5082791	0	9.746988e-19	5.75
0	0.86623204	-0.4996419	0	9.745303e-19	5.76
0	0.8711852	-0.4909548	0	9.743584e-19	5.77
0	0.876051	-0.48221847	0	9.741824e-19	5.78
0	0.8808295	-0.4734341	0	9.740032e-19	5.79
0	0.88551956	-0.4646022	0	9.738207e-19	5.8
0	0.89012134	-0.4557239	0	9.736358e-19	5.81
0	0.8946338	-0.44680002	0	9.73448e-19	5.82
0	0.899057	-0.43783155	0	9.732582e-19	5.83
0	0.9033903	-0.42881924	0	9.730666e-19	5.84
0	0.9076333	-0.419764	0	9.728734e-19	5.85
0	0.91178554	-0.41066682	0	9.726788e-19	5.86
0	0.9158465	-0.40152863	0	9.724833e-19	5.87
0	0.9198159	-0.39235026	0	9.722873e-19	5.88
0	0.9236934	-0.3831326	0	9.720908e-19	5.89
0	0.92747843	-0.37387663	0	9.718943e-19	5.9
0	0.9311708	-0.36458334	0	9.716984e-19	5.91
0	0.9347699	-0.3552535	0	9.715025e-19	5.92
0	0.93827575	-0.34588832	0	9.713084e-19	5.93
0	0.9416876	-0.33648834	0	9.711146e-19	5.94
0	0.94500524	-0.32705483	0	9.70923e-19	5.95
0	0.9482287	-0.31758863	0	9.707333e-19	5.96
0	0.95135707	-0.30809057	0	9.705452e-19	5.97
0	0.9543903	-0.29856175	0	9.703595e-19	5.98
0	0.9573282	-0.2890031	0	9.701774e-19	5.99
0	0.9601703	-0.2794155	0	9.699978e-19	6
0	0.9629163	-0.2698	0	9.698212e-19	6.01
0	0.96556634	-0.2601575	0	9.696488e-19	6.02
0	0.96811944	-0.250489	0	9.694798e-19	6.03
0	0.97057605	-0.24079546	0	9.693157e-19	6.04
0	0.97293544	-0.23107779	0	9.691555e-19	6.05
0	0.97519743	-0.22133702	0	9.689998e-19	6.06
0	0.97736204	-0.21157421	0	9.688494e-19	6.07
0	0.9794289	-0.20179017	0	9.687042e-19	6.08
0	0.98139775	-0.19198593	0	9.68564e-19	6.09
0	0.9832685	-0.18216251	0	9.684297e-19	6.1
0	0.985041	-0.1723209	0	9.683015e-19	6.11
0	0.9867149	-0.16246204	0	9.681788e-19	6.12
0	0.98829	-0.15258689	0	9.680627e-19	6.13
0	0.98976654	-0.14269654	0	9.679527e-19	6.14
0	0.99114394	-0.1327919	0	9.678495e-19	6.15
0	0.9924223	-0.12287399	0	9.677531e-19	6.16
0	0.9936014	-0.1129438	0	9.676639e-19	6.17
0	0.9946812	-0.1030023	0	9.675813e-19	6.18
0	0.9956614	-0.093050495	0	9.675061e-19	6.19
0	0.9965421	-0.083089404	0	9.674383e-19	6.2
0	0.9973232	-0.07311999	0	9.67378e-19	6.21
0	0.99800456	-0.063143276	0	9.673251e-19	6.22
0	0.998586	-0.05316024	0	9.672795e-19	6.23
0	0.99906766	-0.04317189	0	9.672416e-19	6.24
0	0.99944943	-0.033179212	0	9.672122e-19	6.25
0	0.9997312	-0.02318323	0	9.6719e-19	6.26
0	0.9999131	-0.013184926	0	9.671758e-19	6.27
0	0.99999493	-0.0031853013	0	9.671691e-19	6.28
