# t (s)	mx ()	my ()	mz ()	E_total (J)	E_Zeeman (J)	Roundness ()	Size (nm)	Temp (K)	alpha ()	Cell_size (m)
0	1	0	0	8.3613536e-19	-0	0.49	100	300	0.009999999	2e-09
1.0018519734196383e-11	0.989319	-0.0014265438	0.002746431	4.394761e-18	-0	0.49	100	300	0.009999999	2e-09
2.001137449761321e-11	0.9866709	-0.0074430685	0.001224292	5.6602782e-18	-0	0.49	100	300	0.009999999	2e-09
3.0044542782538804e-11	0.9846732	-0.007122701	0.0020311584	5.7795614e-18	-0	0.49	100	300	0.009999999	2e-09
4.002044313497936e-11	0.9839724	-0.005775914	-0.0010845354	6.289786e-18	-0	0.49	100	300	0.009999999	2e-09
5.002474350120426e-11	0.9828441	-0.0022413959	-0.0018952438	6.2493053e-18	-0	0.49	100	300	0.009999999	2e-09
6.000902734264027e-11	0.98079556	0.003905911	-0.004049083	5.7753664e-18	-0	0.49	100	300	0.009999999	2e-09
7.001939595457241e-11	0.9800881	0.011963089	-0.0017034526	5.712621e-18	-0	0.49	100	300	0.009999999	2e-09
8.004527214373642e-11	0.9823907	0.010187522	0.0009858767	6.4002992e-18	-0	0.49	100	300	0.009999999	2e-09
9.002991948935121e-11	0.9834238	0.007537712	0.005900127	6.117847e-18	-0	0.49	100	300	0.009999999	2e-09
1.0002550047480129e-10	0.9823471	0.00068411545	0.0043292907	5.337756e-18	-0	0.49	100	300	0.009999999	2e-09
1.100088483534587e-10	0.9794079	-0.004350305	0.0013391024	5.7371944e-18	-0	0.49	100	300	0.009999999	2e-09
1.2002819567424598e-10	0.9777731	-0.008879253	0.0012547584	5.813937e-18	-0	0.49	100	300	0.009999999	2e-09
1.3003541818745795e-10	0.9776964	-0.011695956	0.0061153416	5.8149577e-18	-0	0.49	100	300	0.009999999	2e-09
1.4003361504248142e-10	0.97893107	-0.016144227	0.0069245067	5.9704122e-18	-0	0.49	100	300	0.009999999	2e-09
1.5003475482236912e-10	0.98044324	-0.028131858	0.006290943	6.0302724e-18	-0	0.49	100	300	0.009999999	2e-09
1.6004962917197922e-10	0.9820656	-0.029766332	0.0030396536	5.585674e-18	-0	0.49	100	300	0.009999999	2e-09
1.7002032342904177e-10	0.98125774	-0.03415728	0.005281189	7.279293e-18	-0	0.49	100	300	0.009999999	2e-09
1.8002103143465771e-10	0.9783245	-0.04370948	0.0075625987	6.7063408e-18	-0	0.49	100	300	0.009999999	2e-09
1.90041213254668e-10	0.9753392	-0.0494683	0.006380976	6.2130404e-18	-0	0.49	100	300	0.009999999	2e-09
2.000165810113316e-10	0.9741543	-0.056191213	0.003348398	6.6259396e-18	-0	0.49	100	300	0.009999999	2e-09
2.1003292988706578e-10	0.97520363	-0.05521336	-0.00019329629	6.3848314e-18	-0	0.49	100	300	0.009999999	2e-09
2.2005028410956717e-10	0.97652954	-0.05523783	-0.00041213536	6.6571752e-18	-0	0.49	100	300	0.009999999	2e-09
2.3004211637834574e-10	0.97827256	-0.06463147	0.0010844553	6.6162765e-18	-0	0.49	100	300	0.009999999	2e-09
2.400351304049172e-10	0.97807926	-0.060582034	-0.0009102353	6.969083e-18	-0	0.49	100	300	0.009999999	2e-09
2.5001932405763337e-10	0.9765547	-0.06078837	-0.0020159092	7.292089e-18	-0	0.49	100	300	0.009999999	2e-09
2.6001807339201854e-10	0.9745782	-0.05943152	0.0014628193	6.1173414e-18	-0	0.49	100	300	0.009999999	2e-09
2.700047167669843e-10	0.97184247	-0.06005718	0.0037581536	6.2939557e-18	-0	0.49	100	300	0.009999999	2e-09
2.8004555906945686e-10	0.97300494	-0.06848777	0.0072395867	6.3876926e-18	-0	0.49	100	300	0.009999999	2e-09
2.90004538365499e-10	0.9754175	-0.08258658	0.00789882	6.914886e-18	-0	0.49	100	300	0.009999999	2e-09
3.0002964026113854e-10	0.97717035	-0.09519294	0.002751989	6.198272e-18	-0	0.49	100	300	0.009999999	2e-09
3.100440947240516e-10	0.9768223	-0.0959981	0.0004618722	6.009279e-18	-0	0.49	100	300	0.009999999	2e-09
3.2002403558216013e-10	0.9760073	-0.097926825	-0.00058811414	6.394813e-18	-0	0.49	100	300	0.009999999	2e-09
3.30011513735535e-10	0.9734675	-0.09558892	-0.0037072964	7.322411e-18	-0	0.49	100	300	0.009999999	2e-09
3.4000671657485707e-10	0.97181606	-0.091007344	-0.0060508302	5.779667e-18	-0	0.49	100	300	0.009999999	2e-09
3.500030793557066e-10	0.9719897	-0.089986056	-0.005357985	6.0740183e-18	-0	0.49	100	300	0.009999999	2e-09
3.6001656176464373e-10	0.975129	-0.07987626	-0.0010793495	5.5702185e-18	-0	0.49	100	300	0.009999999	2e-09
3.7001545350050503e-10	0.9781535	-0.0780712	0.0015851441	6.995386e-18	-0	0.49	100	300	0.009999999	2e-09
3.80022602726678e-10	0.9790837	-0.07862	-0.002239743	6.925954e-18	-0	0.49	100	300	0.009999999	2e-09
3.9004434360381725e-10	0.97778654	-0.07547146	0.0031845903	6.500971e-18	-0	0.49	100	300	0.009999999	2e-09
4.0003572550521103e-10	0.974263	-0.07755799	0.0076417993	5.523652e-18	-0	0.49	100	300	0.009999999	2e-09
4.1004078956262915e-10	0.9701486	-0.07908957	0.003596776	6.9279276e-18	-0	0.49	100	300	0.009999999	2e-09
4.2002121787699915e-10	0.9687502	-0.089567065	0.0051521864	6.085533e-18	-0	0.49	100	300	0.009999999	2e-09
4.300501746791284e-10	0.9726687	-0.10188762	0.0074699437	6.4411467e-18	-0	0.49	100	300	0.009999999	2e-09
4.400245737882395e-10	0.97435325	-0.113890305	0.0053114505	7.257985e-18	-0	0.49	100	300	0.009999999	2e-09
4.500036052954329e-10	0.97324646	-0.12403359	0.008191258	7.014898e-18	-0	0.49	100	300	0.009999999	2e-09
4.600335481433645e-10	0.9691059	-0.1391967	0.010132265	7.207668e-18	-0	0.49	100	300	0.009999999	2e-09
4.700170303635362e-10	0.9646812	-0.14321391	0.0049226596	6.666543e-18	-0	0.49	100	300	0.009999999	2e-09
4.800026401933464e-10	0.95928514	-0.14209498	0.00091436814	5.683145e-18	-0	0.49	100	300	0.009999999	2e-09
4.90025738112219e-10	0.9590019	-0.14518818	-0.00022159207	6.7704593e-18	-0	0.49	100	300	0.009999999	2e-09
5.0002576573693e-10	0.96409047	-0.14542803	0.0031506557	6.3106027e-18	-0	0.49	100	300	0.009999999	2e-09
5.100215354109529e-10	0.96689016	-0.15241833	0.008433938	6.1762855e-18	-0	0.49	100	300	0.009999999	2e-09
5.200211827711222e-10	0.96581405	-0.17004038	0.013346073	6.0109296e-18	-0	0.49	100	300	0.009999999	2e-09
5.300397858252216e-10	0.9610257	-0.18407424	0.011522731	6.254514e-18	-0	0.49	100	300	0.009999999	2e-09
5.400228903516178e-10	0.95490915	-0.19839968	0.011412471	7.223862e-18	-0	0.49	100	300	0.009999999	2e-09
5.500397296734502e-10	0.94982356	-0.21697918	0.005882973	6.916216e-18	-0	0.49	100	300	0.009999999	2e-09
5.600298244158751e-10	0.9500147	-0.22491467	-0.0033492295	6.499628e-18	-0	0.49	100	300	0.009999999	2e-09
5.700491702713999e-10	0.95532197	-0.21703865	-0.0103055015	6.820874e-18	-0	0.49	100	300	0.009999999	2e-09
5.800052951249643e-10	0.9579356	-0.20508465	-0.014446774	6.4779806e-18	-0	0.49	100	300	0.009999999	2e-09
5.900365449233414e-10	0.95909184	-0.18696779	-0.013076733	6.010256e-18	-0	0.49	100	300	0.009999999	2e-09
6.000385691135508e-10	0.95854396	-0.1688581	-0.009489524	5.944997e-18	-0	0.49	100	300	0.009999999	2e-09
6.10032073889034e-10	0.9573038	-0.15467343	-0.0064090355	6.572076e-18	-0	0.49	100	300	0.009999999	2e-09
6.200498315245286e-10	0.95970523	-0.14768125	-0.004990068	6.33535e-18	-0	0.49	100	300	0.009999999	2e-09
6.300247404552353e-10	0.96469223	-0.14512435	-0.005267249	6.6173816e-18	-0	0.49	100	300	0.009999999	2e-09
6.400214527410618e-10	0.9677847	-0.14175862	-0.008965533	6.631572e-18	-0	0.49	100	300	0.009999999	2e-09
6.500379330198904e-10	0.96923167	-0.13016436	-0.010163219	6.4752265e-18	-0	0.49	100	300	0.009999999	2e-09
6.600489771282694e-10	0.9710233	-0.119639106	-0.010545738	6.645934e-18	-0	0.49	100	300	0.009999999	2e-09
6.700227323795313e-10	0.97238815	-0.105152555	-0.009116703	5.7291232e-18	-0	0.49	100	300	0.009999999	2e-09
6.800141212194286e-10	0.97303635	-0.09198892	-0.014299724	6.6843804e-18	-0	0.49	100	300	0.009999999	2e-09
6.900164444636618e-10	0.97410446	-0.071676016	-0.01125362	6.4391043e-18	-0	0.49	100	300	0.009999999	2e-09
7.000082532652373e-10	0.9765673	-0.05659082	-0.012082448	6.495439e-18	-0	0.49	100	300	0.009999999	2e-09
7.100249227883601e-10	0.97627944	-0.041254513	-0.009224592	6.581862e-18	-0	0.49	100	300	0.009999999	2e-09
7.200268218608853e-10	0.9751408	-0.032135922	-0.008514442	5.9862197e-18	-0	0.49	100	300	0.009999999	2e-09
7.30038706207795e-10	0.9737777	-0.02100141	-0.006460286	6.0460095e-18	-0	0.49	100	300	0.009999999	2e-09
7.400143477417986e-10	0.9726269	-0.011966084	-0.0067351605	6.438703e-18	-0	0.49	100	300	0.009999999	2e-09
7.500413982179558e-10	0.973762	-0.0005732883	-0.0078016147	7.223373e-18	-0	0.49	100	300	0.009999999	2e-09
7.600386139423756e-10	0.97547066	0.013121817	-0.010027009	6.2514547e-18	-0	0.49	100	300	0.009999999	2e-09
7.700109140936838e-10	0.97577703	0.02958454	-0.009532922	6.320262e-18	-0	0.49	100	300	0.009999999	2e-09
7.800114211547344e-10	0.9742041	0.043083712	-0.012681273	6.5984177e-18	-0	0.49	100	300	0.009999999	2e-09
7.900097431772497e-10	0.9727044	0.05304822	-0.013489624	5.8634607e-18	-0	0.49	100	300	0.009999999	2e-09
8.00027458688705e-10	0.97088814	0.072358	-0.0173709	6.6524466e-18	-0	0.49	100	300	0.009999999	2e-09
8.100048492142339e-10	0.96823496	0.093218826	-0.018772291	6.6198164e-18	-0	0.49	100	300	0.009999999	2e-09
8.200307078063001e-10	0.9656468	0.118690364	-0.016975975	7.028557e-18	-0	0.49	100	300	0.009999999	2e-09
8.300476750486128e-10	0.9637787	0.1390391	-0.016813852	6.7244726e-18	-0	0.49	100	300	0.009999999	2e-09
8.40011950321286e-10	0.964888	0.15440145	-0.015298472	6.6631115e-18	-0	0.49	100	300	0.009999999	2e-09
8.500127885711861e-10	0.9602375	0.17598538	-0.014652837	6.6694456e-18	-0	0.49	100	300	0.009999999	2e-09
8.60033589836249e-10	0.9563741	0.18949327	-0.013598587	6.2494322e-18	-0	0.49	100	300	0.009999999	2e-09
8.700448589821885e-10	0.95233035	0.20202185	-0.01345137	6.157551e-18	-0	0.49	100	300	0.009999999	2e-09
8.800474533444247e-10	0.9464556	0.22037818	-0.016452616	6.0521823e-18	-0	0.49	100	300	0.009999999	2e-09
8.900270484579205e-10	0.9431511	0.23630956	-0.014345292	6.9746356e-18	-0	0.49	100	300	0.009999999	2e-09
9.000452496727978e-10	0.93668115	0.25681522	-0.017995693	6.237587e-18	-0	0.49	100	300	0.009999999	2e-09
9.100128856655011e-10	0.9305573	0.2773653	-0.017378734	6.8457397e-18	-0	0.49	100	300	0.009999999	2e-09
9.200032284329096e-10	0.923411	0.30108935	-0.019966215	6.2337592e-18	-0	0.49	100	300	0.009999999	2e-09
9.300221775914896e-10	0.91878706	0.32083997	-0.019643616	6.3972502e-18	-0	0.49	100	300	0.009999999	2e-09
9.40043626605493e-10	0.9152737	0.33990455	-0.017357096	6.8053977e-18	-0	0.49	100	300	0.009999999	2e-09
9.500423755536133e-10	0.91436666	0.34868464	-0.008637515	6.8556402e-18	-0	0.49	100	300	0.009999999	2e-09
9.600131912452346e-10	0.9079063	0.36230674	-0.014829808	6.3130673e-18	-0	0.49	100	300	0.009999999	2e-09
9.700257012551815e-10	0.89995515	0.3785225	-0.013056092	6.590868e-18	-0	0.49	100	300	0.009999999	2e-09
9.800061832097577e-10	0.88922745	0.39596832	-0.012502539	6.36611e-18	-0	0.49	100	300	0.009999999	2e-09
9.900220582462267e-10	0.8731529	0.41545424	-0.017301705	7.20073e-18	-0	0.49	100	300	0.009999999	2e-09
1.000025428829757e-09	0.85885215	0.4370801	-0.0152529245	6.4889705e-18	-0	0.49	100	300	0.009999999	2e-09
1.010014599823782e-09	0.8532342	0.4502317	-0.011345761	6.674802e-18	-0	0.49	100	300	0.009999999	2e-09
1.0200006356294197e-09	0.848056	0.4670591	-0.014753786	6.1592166e-18	-0	0.49	100	300	0.009999999	2e-09
1.030003521952205e-09	0.8407241	0.48156905	-0.018099483	6.51578e-18	-0	0.49	100	300	0.009999999	2e-09
1.0400222101691506e-09	0.82775235	0.50350094	-0.023055289	6.2046483e-18	-0	0.49	100	300	0.009999999	2e-09
1.0500299298110916e-09	0.8110778	0.53282076	-0.027515145	6.4263947e-18	-0	0.49	100	300	0.009999999	2e-09
1.0600056719172509e-09	0.79193616	0.5609022	-0.02381872	6.7198044e-18	-0	0.49	100	300	0.009999999	2e-09
1.0700173931012235e-09	0.77154404	0.59091073	-0.019989263	6.8533585e-18	-0	0.49	100	300	0.009999999	2e-09
1.080009057725139e-09	0.75646096	0.6106908	-0.018203177	6.1113667e-18	-0	0.49	100	300	0.009999999	2e-09
1.0900335160428436e-09	0.74484396	0.6237122	-0.016894419	6.671838e-18	-0	0.49	100	300	0.009999999	2e-09
1.1000353057065892e-09	0.7362995	0.63761914	-0.015470628	7.22839e-18	-0	0.49	100	300	0.009999999	2e-09
1.1100035743715237e-09	0.7212061	0.65047866	-0.015528975	6.236436e-18	-0	0.49	100	300	0.009999999	2e-09
1.1200124521507965e-09	0.7075804	0.659626	-0.016745891	6.25039e-18	-0	0.49	100	300	0.009999999	2e-09
1.1300003300555816e-09	0.6890014	0.6776907	-0.01979122	6.3003295e-18	-0	0.49	100	300	0.009999999	2e-09
1.1400266231298658e-09	0.6643636	0.70225155	-0.019639675	6.0568613e-18	-0	0.49	100	300	0.009999999	2e-09
1.1500236785178685e-09	0.6425135	0.7234766	-0.017067384	6.3699152e-18	-0	0.49	100	300	0.009999999	2e-09
1.1600080724592937e-09	0.62978196	0.733367	-0.01239786	6.2823243e-18	-0	0.49	100	300	0.009999999	2e-09
1.1700256937540252e-09	0.61708516	0.7440551	-0.009639957	7.08313e-18	-0	0.49	100	300	0.009999999	2e-09
1.180032098076402e-09	0.60971546	0.7519286	-0.009172431	6.4449873e-18	-0	0.49	100	300	0.009999999	2e-09
1.1900107224355566e-09	0.60532725	0.75722015	-0.00796521	6.8313997e-18	-0	0.49	100	300	0.009999999	2e-09
1.2000265807764539e-09	0.59654677	0.7673077	-0.006392207	6.636351e-18	-0	0.49	100	300	0.009999999	2e-09
1.2100058961247649e-09	0.59179103	0.7739385	-0.008791455	7.633126e-18	-0	0.49	100	300	0.009999999	2e-09
1.220040547808462e-09	0.5775336	0.785298	-0.009097137	6.482923e-18	-0	0.49	100	300	0.009999999	2e-09
1.2300294959522452e-09	0.56290084	0.7961208	-0.010606265	6.7368873e-18	-0	0.49	100	300	0.009999999	2e-09
1.2400223538978156e-09	0.5527585	0.80424154	-0.011175958	6.4442577e-18	-0	0.49	100	300	0.009999999	2e-09
1.2500309449869308e-09	0.5399744	0.810793	-0.008454128	6.355437e-18	-0	0.49	100	300	0.009999999	2e-09
1.2600327598263096e-09	0.5371076	0.8108995	-0.005071513	5.755381e-18	-0	0.49	100	300	0.009999999	2e-09
1.2700144515973426e-09	0.5357163	0.8092963	0.00069167255	6.259245e-18	-0	0.49	100	300	0.009999999	2e-09
1.2800344198295634e-09	0.53310215	0.8085313	-0.000519928	6.8698673e-18	-0	0.49	100	300	0.009999999	2e-09
1.2900514996297399e-09	0.52759176	0.8113079	-0.00266002	6.2397112e-18	-0	0.49	100	300	0.009999999	2e-09
1.3000307026065517e-09	0.5197884	0.8164336	-0.0032316968	6.63438e-18	-0	0.49	100	300	0.009999999	2e-09
1.3100028575860357e-09	0.51451635	0.8232215	-0.0041094925	5.3362662e-18	-0	0.49	100	300	0.009999999	2e-09
1.320046644641122e-09	0.5138277	0.8294271	-0.003965408	7.056508e-18	-0	0.49	100	300	0.009999999	2e-09
1.3300461493670445e-09	0.5127027	0.8323087	-0.0010819058	6.7318303e-18	-0	0.49	100	300	0.009999999	2e-09
1.3400350302980092e-09	0.5109015	0.8317748	-0.0017334534	7.002792e-18	-0	0.49	100	300	0.009999999	2e-09
1.350018550582306e-09	0.508097	0.8322477	-0.0058025634	7.037036e-18	-0	0.49	100	300	0.009999999	2e-09
1.3600489439080544e-09	0.501116	0.8338827	-0.009135768	5.840866e-18	-0	0.49	100	300	0.009999999	2e-09
1.3700400069665618e-09	0.483827	0.84219074	-0.015937416	6.3171643e-18	-0	0.49	100	300	0.009999999	2e-09
1.3800162224946188e-09	0.4653685	0.84913963	-0.01627967	6.5706356e-18	-0	0.49	100	300	0.009999999	2e-09
1.3900346615193627e-09	0.44867337	0.85588974	-0.010455316	6.0403102e-18	-0	0.49	100	300	0.009999999	2e-09
1.4000028031605121e-09	0.44126806	0.8626281	-0.0048016356	6.1593316e-18	-0	0.49	100	300	0.009999999	2e-09
1.4100085404000288e-09	0.44325018	0.86258787	-0.0023425296	7.1142496e-18	-0	0.49	100	300	0.009999999	2e-09
1.4200182483995177e-09	0.43742013	0.8666455	-0.0038015062	6.4146516e-18	-0	0.49	100	300	0.009999999	2e-09
1.4300508441352164e-09	0.4353819	0.8680536	-0.0044667013	6.0973745e-18	-0	0.49	100	300	0.009999999	2e-09
1.4400344579923436e-09	0.43491268	0.8719725	-0.0036184948	5.8477943e-18	-0	0.49	100	300	0.009999999	2e-09
1.4500141371513096e-09	0.42835456	0.87751883	-0.005604002	5.6090344e-18	-0	0.49	100	300	0.009999999	2e-09
1.4600143803382704e-09	0.4267669	0.878426	-0.004996223	7.060813e-18	-0	0.49	100	300	0.009999999	2e-09
1.470045001048385e-09	0.41424847	0.8831955	-0.008434434	6.0988366e-18	-0	0.49	100	300	0.009999999	2e-09
1.480022076839494e-09	0.40622222	0.8858009	-0.004505719	6.556801e-18	-0	0.49	100	300	0.009999999	2e-09
1.490018056426411e-09	0.40656686	0.88406837	-0.006084371	7.182692e-18	-0	0.49	100	300	0.009999999	2e-09
1.5000257858608355e-09	0.3974471	0.8868068	-0.007455134	6.322525e-18	-0	0.49	100	300	0.009999999	2e-09
1.5100196137290514e-09	0.3894187	0.88883287	-0.0026743123	5.89903e-18	-0	0.49	100	300	0.009999999	2e-09
1.5200012638831148e-09	0.38745892	0.8911333	0.00017929936	6.453233e-18	-0	0.49	100	300	0.009999999	2e-09
1.5300434223840495e-09	0.38640714	0.89410454	-0.0022046696	6.2440407e-18	-0	0.49	100	300	0.009999999	2e-09
1.5400020552048149e-09	0.37839252	0.89960647	-0.0034854272	6.3728658e-18	-0	0.49	100	300	0.009999999	2e-09
1.5500046656683502e-09	0.37927827	0.8972728	-0.004096594	6.5804422e-18	-0	0.49	100	300	0.009999999	2e-09
1.5600415246265838e-09	0.37105095	0.90109444	-0.0036429807	5.3600034e-18	-0	0.49	100	300	0.009999999	2e-09
1.5700469379139123e-09	0.36795017	0.9057173	-0.0051098266	6.632175e-18	-0	0.49	100	300	0.009999999	2e-09
1.5800438796197893e-09	0.36165828	0.9074388	-0.007583385	5.722523e-18	-0	0.49	100	300	0.009999999	2e-09
1.5900242241837594e-09	0.35117075	0.9110206	-0.010448398	6.118981e-18	-0	0.49	100	300	0.009999999	2e-09
1.6000443561346147e-09	0.34095338	0.9148062	-0.008753775	7.0384864e-18	-0	0.49	100	300	0.009999999	2e-09
1.6100489149627606e-09	0.32351127	0.9223779	-0.007326631	6.3227126e-18	-0	0.49	100	300	0.009999999	2e-09
1.6200319075627734e-09	0.30372006	0.92909145	-0.01001858	6.0597775e-18	-0	0.49	100	300	0.009999999	2e-09
1.630013365818106e-09	0.29426542	0.93303764	-0.010418027	6.853761e-18	-0	0.49	100	300	0.009999999	2e-09
1.6400405461102334e-09	0.27990925	0.9378286	-0.014975815	6.010795e-18	-0	0.49	100	300	0.009999999	2e-09
1.6500077592875118e-09	0.26453343	0.9417973	-0.0110270735	6.0688203e-18	-0	0.49	100	300	0.009999999	2e-09
1.6600047726686321e-09	0.24867146	0.94360423	-0.01315413	6.700913e-18	-0	0.49	100	300	0.009999999	2e-09
1.670020086349192e-09	0.22639634	0.9456682	-0.016764775	7.588229e-18	-0	0.49	100	300	0.009999999	2e-09
1.680033060953385e-09	0.20004874	0.9504758	-0.020171583	6.5316965e-18	-0	0.49	100	300	0.009999999	2e-09
1.6900437922737448e-09	0.17219149	0.9579901	-0.02037617	7.251693e-18	-0	0.49	100	300	0.009999999	2e-09
1.7000265439392515e-09	0.14663371	0.96659964	-0.024488337	6.5341213e-18	-0	0.49	100	300	0.009999999	2e-09
1.7100197660308008e-09	0.11030048	0.9734563	-0.027507374	6.5599794e-18	-0	0.49	100	300	0.009999999	2e-09
1.7200188030639054e-09	0.07894548	0.9764893	-0.023622122	6.581378e-18	-0	0.49	100	300	0.009999999	2e-09
1.7300137650188827e-09	0.044672556	0.9759206	-0.02367685	6.370323e-18	-0	0.49	100	300	0.009999999	2e-09
1.740043330498837e-09	0.019097779	0.9733996	-0.017572923	6.7783224e-18	-0	0.49	100	300	0.009999999	2e-09
1.750041001650374e-09	0.0031781609	0.9743186	-0.013587581	5.8050237e-18	-0	0.49	100	300	0.009999999	2e-09
1.760037898081273e-09	-0.02021804	0.976771	-0.00852082	5.6376875e-18	-0	0.49	100	300	0.009999999	2e-09
1.77000235981049e-09	-0.03330273	0.9783589	-0.009901664	5.679826e-18	-0	0.49	100	300	0.009999999	2e-09
1.7800064767019953e-09	-0.045964036	0.9792491	-0.011457221	6.3216133e-18	-0	0.49	100	300	0.009999999	2e-09
1.7900452214101294e-09	-0.05583978	0.9774959	-0.008747349	6.941179e-18	-0	0.49	100	300	0.009999999	2e-09
1.800024912299814e-09	-0.061903782	0.974875	-0.0052655153	6.963744e-18	-0	0.49	100	300	0.009999999	2e-09
1.810035704586358e-09	-0.060806807	0.9722947	-0.0013092008	6.1406125e-18	-0	0.49	100	300	0.009999999	2e-09
1.8200400860647222e-09	-0.05855931	0.9720031	0.00026527033	6.482908e-18	-0	0.49	100	300	0.009999999	2e-09
1.8300054750470202e-09	-0.057567608	0.97575635	0.00016316876	6.291008e-18	-0	0.49	100	300	0.009999999	2e-09
1.8400440334299137e-09	-0.063495375	0.9773788	-0.0009687375	6.270027e-18	-0	0.49	100	300	0.009999999	2e-09
1.8500118202246167e-09	-0.06669284	0.9766542	-0.0021681897	6.6709267e-18	-0	0.49	100	300	0.009999999	2e-09
1.8600025698797011e-09	-0.07113224	0.9727051	-0.0057172826	6.357711e-18	-0	0.49	100	300	0.009999999	2e-09
1.87002319413964e-09	-0.07801982	0.9694917	-0.00598609	5.8325407e-18	-0	0.49	100	300	0.009999999	2e-09
1.880047218855643e-09	-0.07890616	0.96927536	-0.0036449807	6.718406e-18	-0	0.49	100	300	0.009999999	2e-09
1.890011067417325e-09	-0.08455009	0.971493	0.0015604569	6.5654694e-18	-0	0.49	100	300	0.009999999	2e-09
1.9000323004813244e-09	-0.08034812	0.97486603	-0.00050532573	6.9332467e-18	-0	0.49	100	300	0.009999999	2e-09
1.9100063164363002e-09	-0.08333039	0.9765003	-0.003334467	6.2107127e-18	-0	0.49	100	300	0.009999999	2e-09
1.9200217201723534e-09	-0.08261191	0.97546047	-0.00030685886	5.8465506e-18	-0	0.49	100	300	0.009999999	2e-09
1.9300426365021777e-09	-0.081720546	0.97269297	0.0043794885	6.046485e-18	-0	0.49	100	300	0.009999999	2e-09
1.940043787258568e-09	-0.068629056	0.97070616	0.0050503123	6.0759282e-18	-0	0.49	100	300	0.009999999	2e-09
1.9500083511729014e-09	-0.05963911	0.97016704	0.0062990426	6.5462904e-18	-0	0.49	100	300	0.009999999	2e-09
1.9600394221538006e-09	-0.0503954	0.9738163	0.008266716	7.128877e-18	-0	0.49	100	300	0.009999999	2e-09
1.970032059674522e-09	-0.03861967	0.97758406	0.007930363	7.4994486e-18	-0	0.49	100	300	0.009999999	2e-09
1.980011770567851e-09	-0.029743146	0.97987163	0.008940171	6.7932853e-18	-0	0.49	100	300	0.009999999	2e-09
1.9900118173253922e-09	-0.020549573	0.97847044	0.003370621	6.5357294e-18	-0	0.49	100	300	0.009999999	2e-09
2.0000284034966303e-09	-0.014071315	0.9746367	0.0033038324	7.330521e-18	-0	0.49	100	300	0.009999999	2e-09
2.010010951562589e-09	-0.0075732227	0.9723959	0.0020449874	6.4770335e-18	-0	0.49	100	300	0.009999999	2e-09
2.0200262003456636e-09	-0.0038303584	0.9718303	0.0024740587	6.1371938e-18	-0	0.49	100	300	0.009999999	2e-09
2.030018576045144e-09	0.007947903	0.9750487	0.0008643888	6.076335e-18	-0	0.49	100	300	0.009999999	2e-09
2.04001051572856e-09	0.0043245265	0.97847277	0.0004616197	6.7122878e-18	-0	0.49	100	300	0.009999999	2e-09
2.050035653279995e-09	0.004428684	0.97988534	0.0019293118	6.7192936e-18	-0	0.49	100	300	0.009999999	2e-09
2.060002421299964e-09	0.0051534628	0.9795659	0.0023539024	5.712874e-18	-0	0.49	100	300	0.009999999	2e-09
2.0700407914256375e-09	0.008270282	0.9741184	0.0019739014	6.674859e-18	-0	0.49	100	300	0.009999999	2e-09
2.0800194991391125e-09	0.012202843	0.97035885	0.0034577546	6.5241125e-18	-0	0.49	100	300	0.009999999	2e-09
2.09003862968359e-09	0.024139177	0.9703724	0.0069247284	6.1281217e-18	-0	0.49	100	300	0.009999999	2e-09
2.1000284012238875e-09	0.039403852	0.97514564	0.004150647	6.0740017e-18	-0	0.49	100	300	0.009999999	2e-09
2.1100441006061538e-09	0.048333813	0.97916734	0.006435164	5.9452858e-18	-0	0.49	100	300	0.009999999	2e-09
2.1200153046042325e-09	0.04869733	0.9799055	0.0004969013	6.753e-18	-0	0.49	100	300	0.009999999	2e-09
2.1300371134937317e-09	0.04120209	0.9780791	-0.0050233034	6.300768e-18	-0	0.49	100	300	0.009999999	2e-09
2.140015245800368e-09	0.035900395	0.97426677	-0.0019104851	6.8621956e-18	-0	0.49	100	300	0.009999999	2e-09
2.1500188647071625e-09	0.035623636	0.9723703	-0.003163229	6.6719425e-18	-0	0.49	100	300	0.009999999	2e-09
2.16002810736959e-09	0.035800967	0.9733865	-0.00050770957	5.7977552e-18	-0	0.49	100	300	0.009999999	2e-09
2.1700359595027762e-09	0.042350583	0.97451216	-0.0029162683	5.876627e-18	-0	0.49	100	300	0.009999999	2e-09
2.1800427551464964e-09	0.04486528	0.9767567	0.003567393	4.984745e-18	-0	0.49	100	300	0.009999999	2e-09
2.190023566741162e-09	0.046314873	0.97666675	0.009323863	6.5995443e-18	-0	0.49	100	300	0.009999999	2e-09
2.2000431269405115e-09	0.058070783	0.9758656	0.013839678	6.15703e-18	-0	0.49	100	300	0.009999999	2e-09
2.2100121794888633e-09	0.06774665	0.9751981	0.012325474	6.004046e-18	-0	0.49	100	300	0.009999999	2e-09
2.2200234942920946e-09	0.07772212	0.97279817	0.009813536	6.182017e-18	-0	0.49	100	300	0.009999999	2e-09
2.2300068300236987e-09	0.08862299	0.9726145	0.005704568	6.683671e-18	-0	0.49	100	300	0.009999999	2e-09
2.2400314272585536e-09	0.1002792	0.9725899	0.010675241	6.545164e-18	-0	0.49	100	300	0.009999999	2e-09
2.25002075491484e-09	0.12135637	0.96968734	0.009118906	6.3810656e-18	-0	0.49	100	300	0.009999999	2e-09
2.2600115721414723e-09	0.13153733	0.9674411	0.009563369	7.0348584e-18	-0	0.49	100	300	0.009999999	2e-09
2.270002903992397e-09	0.13875909	0.9657974	0.0071479687	5.985279e-18	-0	0.49	100	300	0.009999999	2e-09
2.280016642501128e-09	0.14564076	0.96404266	0.0086768465	6.1978956e-18	-0	0.49	100	300	0.009999999	2e-09
2.2900117600860843e-09	0.14808212	0.96440816	0.007092543	6.553121e-18	-0	0.49	100	300	0.009999999	2e-09
2.3000063330742016e-09	0.1570994	0.9636932	0.0060474067	6.6115293e-18	-0	0.49	100	300	0.009999999	2e-09
2.310044640511508e-09	0.16797912	0.9629633	0.005577279	6.3125676e-18	-0	0.49	100	300	0.009999999	2e-09
2.32000301109118e-09	0.18055551	0.95879626	0.008049397	6.4282927e-18	-0	0.49	100	300	0.009999999	2e-09
2.3300424982509683e-09	0.19442374	0.955265	0.011734491	6.2978633e-18	-0	0.49	100	300	0.009999999	2e-09
2.340026233280824e-09	0.21154933	0.950798	0.011143976	6.190479e-18	-0	0.49	100	300	0.009999999	2e-09
2.350044787822099e-09	0.22189385	0.9480801	0.0048638904	5.456158e-18	-0	0.49	100	300	0.009999999	2e-09
2.360022778301893e-09	0.22075993	0.9487372	0.002931633	6.9180146e-18	-0	0.49	100	300	0.009999999	2e-09
2.370050365031116e-09	0.22280554	0.9502999	0.0039122566	6.284039e-18	-0	0.49	100	300	0.009999999	2e-09
2.3800108785745884e-09	0.22721292	0.95247024	-0.00032337985	6.0768667e-18	-0	0.49	100	300	0.009999999	2e-09
2.390012652737302e-09	0.22901855	0.95131356	-0.0008148277	6.58526e-18	-0	0.49	100	300	0.009999999	2e-09
2.4000443179753345e-09	0.22340389	0.94983083	-0.0051803705	6.0400894e-18	-0	0.49	100	300	0.009999999	2e-09
2.4100178809018605e-09	0.21340542	0.9492102	-0.0042570797	5.739887e-18	-0	0.49	100	300	0.009999999	2e-09
2.420023264461844e-09	0.20069863	0.95141375	-0.0029408429	6.7180305e-18	-0	0.49	100	300	0.009999999	2e-09
2.4300437305592583e-09	0.19570112	0.95334667	0.00018455485	5.6199693e-18	-0	0.49	100	300	0.009999999	2e-09
2.440037515884367e-09	0.19375257	0.95694107	-0.0006930189	5.643446e-18	-0	0.49	100	300	0.009999999	2e-09
2.450027195693469e-09	0.19148514	0.9583835	0.0023975112	7.357732e-18	-0	0.49	100	300	0.009999999	2e-09
2.4600253628789693e-09	0.19374456	0.95921904	0.0021663369	6.4097394e-18	-0	0.49	100	300	0.009999999	2e-09
2.4700438930812003e-09	0.19589406	0.95884806	0.004596857	7.237552e-18	-0	0.49	100	300	0.009999999	2e-09
2.4800077504367564e-09	0.20686649	0.9556022	0.004916962	6.0129405e-18	-0	0.49	100	300	0.009999999	2e-09
2.4900226210319427e-09	0.2141504	0.9528079	0.0036937185	7.150313e-18	-0	0.49	100	300	0.009999999	2e-09
2.5000082639479706e-09	0.21026108	0.9540578	-0.000914201	6.757831e-18	-0	0.49	100	300	0.009999999	2e-09
2.5100378412111033e-09	0.2067279	0.9565495	-0.0027665892	6.0029775e-18	-0	0.49	100	300	0.009999999	2e-09
2.520032032276145e-09	0.19589202	0.9587799	-0.005864621	6.8169807e-18	-0	0.49	100	300	0.009999999	2e-09
2.530006411396228e-09	0.18779862	0.95748687	-0.0063753584	6.7893467e-18	-0	0.49	100	300	0.009999999	2e-09
2.5400297354580667e-09	0.17940821	0.95691824	-0.0056528505	5.641887e-18	-0	0.49	100	300	0.009999999	2e-09
2.5500132922196035e-09	0.17179099	0.9566249	-0.005281807	6.770903e-18	-0	0.49	100	300	0.009999999	2e-09
2.560043931948019e-09	0.16858856	0.95784026	-0.0045656958	5.7603865e-18	-0	0.49	100	300	0.009999999	2e-09
2.570018277978005e-09	0.16355719	0.9604055	-0.00090182276	6.4631683e-18	-0	0.49	100	300	0.009999999	2e-09
2.580042116716026e-09	0.16518658	0.96187234	0.0039556874	6.8156576e-18	-0	0.49	100	300	0.009999999	2e-09
2.5900519298112315e-09	0.16930875	0.9636065	0.00058737915	6.668595e-18	-0	0.49	100	300	0.009999999	2e-09
2.6000170095614106e-09	0.17232448	0.96382886	0.005183227	6.254705e-18	-0	0.49	100	300	0.009999999	2e-09
2.61002573055783e-09	0.17536727	0.961551	0.0023888254	6.1312898e-18	-0	0.49	100	300	0.009999999	2e-09
2.620023828049162e-09	0.17204268	0.9609293	-0.0053109075	6.0919507e-18	-0	0.49	100	300	0.009999999	2e-09
2.6300192881006965e-09	0.16483366	0.96126074	-0.013859673	6.2865797e-18	-0	0.49	100	300	0.009999999	2e-09
2.6400276091822297e-09	0.14666939	0.96273184	-0.015343217	5.8776257e-18	-0	0.49	100	300	0.009999999	2e-09
2.6500081816207717e-09	0.12623005	0.96657044	-0.011741589	6.258396e-18	-0	0.49	100	300	0.009999999	2e-09
2.6600451452426666e-09	0.11375113	0.96752787	-0.0060255984	6.2084632e-18	-0	0.49	100	300	0.009999999	2e-09
2.6700244918919252e-09	0.09949046	0.96587425	-0.003330532	5.8715985e-18	-0	0.49	100	300	0.009999999	2e-09
2.6800417473903365e-09	0.101697415	0.96481323	0.006325999	6.0783634e-18	-0	0.49	100	300	0.009999999	2e-09
2.6900435402899036e-09	0.11465108	0.9656335	0.013283244	6.497955e-18	-0	0.49	100	300	0.009999999	2e-09
2.7000448686819048e-09	0.13530168	0.967273	0.018709812	6.367335e-18	-0	0.49	100	300	0.009999999	2e-09
2.710020087657585e-09	0.15763892	0.9656245	0.011913593	7.28151e-18	-0	0.49	100	300	0.009999999	2e-09
2.720045070028421e-09	0.16475222	0.9634944	0.0021081471	6.727517e-18	-0	0.49	100	300	0.009999999	2e-09
2.7300174887692386e-09	0.1579899	0.9633691	-0.005877591	6.5867863e-18	-0	0.49	100	300	0.009999999	2e-09
2.7400209826902383e-09	0.15484828	0.96345925	-0.006910549	5.977084e-18	-0	0.49	100	300	0.009999999	2e-09
2.750042583125198e-09	0.14099775	0.96521443	-0.0132291885	6.135382e-18	-0	0.49	100	300	0.009999999	2e-09
2.7600019876294608e-09	0.12038252	0.9670657	-0.013038836	6.595556e-18	-0	0.49	100	300	0.009999999	2e-09
2.770047936213602e-09	0.100626245	0.9690341	-0.009621423	5.86914e-18	-0	0.49	100	300	0.009999999	2e-09
2.780029564345037e-09	0.088497266	0.9693506	-0.0067120814	6.991684e-18	-0	0.49	100	300	0.009999999	2e-09
2.790024821708742e-09	0.08535565	0.97038245	-0.00032050483	5.349981e-18	-0	0.49	100	300	0.009999999	2e-09
2.800047766063051e-09	0.08505817	0.97181267	-0.0018649038	7.558533e-18	-0	0.49	100	300	0.009999999	2e-09
2.8100205408543164e-09	0.08114447	0.9736437	-0.0010717901	6.29486e-18	-0	0.49	100	300	0.009999999	2e-09
2.8200123256811712e-09	0.0704325	0.9726626	-0.00216065	7.380943e-18	-0	0.49	100	300	0.009999999	2e-09
2.830017558198412e-09	0.06935614	0.9717155	-0.00345422	6.374572e-18	-0	0.49	100	300	0.009999999	2e-09
2.8400312376141178e-09	0.06935431	0.97095186	-0.009493456	5.510308e-18	-0	0.49	100	300	0.009999999	2e-09