# t (s)	mx ()	my ()	mz ()	E_total (J)	E_Zeeman (J)	Length (nm)
0	1	0	0	8.81875e-19	-0	65
1.0154703315278714e-11	0.9862997	0.032689705	-0.02370036	2.554617e-18	-0	65
2.0087923858408408e-11	0.98399186	0.044586603	-0.010818516	1.5023389e-18	-0	65
3.019430446523301e-11	0.98167616	0.056730397	-0.009150781	2.2433965e-18	-0	65
4.0016007919568606e-11	0.982718	0.06785331	0.0008788659	2.8253777e-18	-0	65
5.018407361429548e-11	0.9790058	0.06540278	0.00025859536	1.822849e-18	-0	65
6.004645227353109e-11	0.9802836	0.049096495	0.006645445	2.5657583e-18	-0	65
7.003133101818645e-11	0.98129696	0.04858127	0.009228285	3.0757437e-18	-0	65
8.013922871429252e-11	0.9785945	0.039455645	0.005783405	1.0951418e-18	-0	65
9.016567727129962e-11	0.98101556	0.018209366	0.010500001	1.9635121e-18	-0	65
1.0014158281686968e-10	0.9825674	0.011262943	0.0062804325	2.0696195e-18	-0	65
1.1007056755234937e-10	0.9814954	-0.0059283157	0.013598322	2.2768167e-18	-0	65
1.201655333748022e-10	0.9798434	-0.026770988	0.014640026	1.9217273e-18	-0	65
1.3002670145586096e-10	0.97963756	-0.030087072	0.004677989	2.9709925e-18	-0	65
1.4014225911584715e-10	0.97844213	-0.028824016	0.0067540756	1.8643756e-18	-0	65
1.5000918355233797e-10	0.9766292	-0.026801117	0.00064506027	3.9040365e-18	-0	65
1.6008673374266817e-10	0.97486246	-0.036965135	-0.0028736829	2.5010449e-18	-0	65
1.7015773385481523e-10	0.9749601	-0.032201264	0.00087424606	2.3300524e-18	-0	65
1.8017841171864116e-10	0.97369933	-0.04281594	-0.003303897	1.7723887e-18	-0	65
1.9008603230829954e-10	0.9778162	-0.017897254	-0.022922624	2.7937002e-18	-0	65
2.0016043117550566e-10	0.9800451	0.009725734	-0.009291695	1.840528e-18	-0	65
2.1009379880288474e-10	0.9778658	0.030110626	-0.0069225603	3.4177333e-18	-0	65
2.2014672537642588e-10	0.9771248	0.027996672	-0.0040033683	2.1380003e-18	-0	65
2.3005194516817125e-10	0.9766901	0.027465697	0.00019650001	6.3884296e-19	-0	65
2.4001092910848944e-10	0.97711957	0.024767783	-0.005495717	3.9295393e-18	-0	65
2.500760108349713e-10	0.9780514	0.019928101	0.0050085946	2.9951497e-19	-0	65
2.600387233270288e-10	0.9794539	0.026768468	0.0050549507	2.294061e-18	-0	65
2.700189917987337e-10	0.97648203	0.024105273	0.0083255535	3.5717345e-18	-0	65
2.8016654831559326e-10	0.97321415	0.036878895	0.004312204	1.5716691e-18	-0	65
2.901612869836066e-10	0.9761892	0.0408672	-0.011526444	2.9286383e-18	-0	65
3.0007666987969854e-10	0.9799145	0.06495064	-0.011635249	2.7079087e-18	-0	65
3.100161037285235e-10	0.98319715	0.056922823	-0.004199819	3.5953414e-18	-0	65
3.201357562441867e-10	0.98043275	0.054384626	0.0006307718	3.4329522e-18	-0	65
3.3013535628862683e-10	0.9796695	0.04837268	0.013952108	2.1974928e-18	-0	65
3.400626071355421e-10	0.9728417	0.048508566	0.0075289053	1.7115781e-18	-0	65
3.5014748879008153e-10	0.96983457	0.04461847	0.0047178017	2.9141674e-18	-0	65
3.6002386216614686e-10	0.97389174	0.03688107	0.0002639856	2.5326473e-18	-0	65
3.701347159039082e-10	0.9780527	0.023808416	-0.0018963239	1.3540632e-18	-0	65
3.8019766802032286e-10	0.97668004	0.02610352	-0.0050610816	3.0623473e-18	-0	65
3.9015505404482355e-10	0.9780552	0.029702827	-0.0035563696	1.6421877e-18	-0	65
4.0018066645171896e-10	0.9768877	0.042480793	-0.01328775	2.9616952e-18	-0	65
4.1013924301848847e-10	0.97369677	0.05484164	-0.015838945	1.7692541e-18	-0	65
4.2014894802826536e-10	0.9744505	0.07085657	-0.009774814	3.218448e-18	-0	65
4.3017237608442846e-10	0.97688144	0.08204333	0.0037960585	3.782241e-18	-0	65
4.400079244022896e-10	0.9768082	0.07249822	0.0042964	2.1047853e-18	-0	65
4.5000288000637907e-10	0.97676265	0.07379558	0.008869339	2.4618556e-18	-0	65
4.601177614955174e-10	0.97755927	0.057031423	0.009949662	1.7096578e-18	-0	65
4.70157114233329e-10	0.9800952	0.049475487	0.004277276	1.496725e-18	-0	65
4.800687105865872e-10	0.97998905	0.057360936	0.0030712036	2.0761917e-18	-0	65
4.901642548424682e-10	0.9783478	0.057093695	0.0077235247	1.5521275e-18	-0	65
5.001034028835453e-10	0.9761869	0.052878834	-0.0054656575	1.8746314e-18	-0	65
5.101078170928923e-10	0.9740026	0.06123263	0.002596566	1.8854714e-18	-0	65
5.201470995070169e-10	0.97143954	0.050990887	0.0034234237	1.6003765e-18	-0	65
5.301321876185823e-10	0.97764546	0.038007315	0.008145855	2.9426148e-18	-0	65
5.401828993307599e-10	0.98236954	0.027091704	0.01609344	2.4538513e-18	-0	65
5.500329095957855e-10	0.98312354	0.002599779	0.012547408	3.2986259e-18	-0	65
5.600929801697669e-10	0.98273987	-0.017267691	0.013470259	2.7175898e-18	-0	65
5.700122011836949e-10	0.9801808	-0.035570014	0.008784306	2.65051e-18	-0	65
5.800187542212668e-10	0.97635907	-0.02775655	0.0009582816	2.9338035e-18	-0	65
5.900084403101832e-10	0.973271	-0.026973475	-0.008194277	2.644797e-18	-0	65
6.001002473678696e-10	0.97674793	-0.029973358	0.002906691	2.933605e-18	-0	65
6.100537078552971e-10	0.98079294	-0.03920036	0.0068571805	3.8290612e-18	-0	65
6.201361810259873e-10	0.98205566	-0.054540522	0.012988713	2.806858e-18	-0	65
6.300200877745315e-10	0.9827846	-0.060503587	-0.005827413	2.9534153e-18	-0	65
6.401651946320661e-10	0.9795758	-0.07329873	0.002311468	3.6261083e-18	-0	65
6.500518866254657e-10	0.97416836	-0.09663348	0.0078668995	2.2860466e-18	-0	65
6.601861862690357e-10	0.9692521	-0.10764569	0.0014681183	4.402328e-18	-0	65
6.701466178654519e-10	0.9660017	-0.11462053	-0.009841527	1.9114587e-18	-0	65
6.800693017884204e-10	0.9700677	-0.10111716	-0.012028238	1.722544e-18	-0	65
6.901540575735502e-10	0.9729949	-0.059892155	-0.021845521	3.0770525e-18	-0	65
7.001884676758593e-10	0.9755922	-0.036068648	-0.017388102	3.1246632e-18	-0	65
7.101409131814756e-10	0.9803709	-0.017639646	-0.010795441	1.0483764e-18	-0	65
7.201536276429838e-10	0.9827976	0.00064938865	-0.008649596	4.146916e-18	-0	65
7.301428009781031e-10	0.98202586	0.013564113	-0.023977637	1.8366059e-18	-0	65
7.400315988781769e-10	0.98185587	0.037485078	-0.014695263	1.95643e-18	-0	65
7.501513992658054e-10	0.97763467	0.054325007	-0.008137403	2.9324035e-18	-0	65
7.601762526138923e-10	0.97129875	0.08032432	-0.0072695226	2.958652e-19	-0	65
7.700590824706678e-10	0.9692755	0.07902077	-0.00084271433	1.9747566e-18	-0	65
7.801961078798026e-10	0.9716282	0.07529002	0.0022190625	3.3932022e-18	-0	65
7.900162461991015e-10	0.97648066	0.06990649	-0.010146591	3.1480513e-18	-0	65
8.001591523482441e-10	0.97714204	0.080589555	-0.0031087045	1.3488256e-18	-0	65
8.101378166236217e-10	0.97626	0.09158445	-0.009820358	3.489079e-18	-0	65
8.200717186438831e-10	0.97662336	0.112949	-0.0176695	2.1587681e-18	-0	65
8.30119422623946e-10	0.96813685	0.14075755	-0.019943267	2.7840823e-18	-0	65
8.401177470929957e-10	0.9642079	0.14852624	0.0017100845	3.2132962e-18	-0	65
8.500362319575357e-10	0.9631426	0.14171374	0.0126985675	3.7144632e-18	-0	65
8.601085511800809e-10	0.96601814	0.121296085	0.003292374	3.4491184e-18	-0	65
8.701762673069404e-10	0.9623225	0.123329565	0.009095523	3.2810622e-18	-0	65
8.801279650523047e-10	0.9674317	0.1015136	0.014540974	1.9167754e-18	-0	65
8.901924736826927e-10	0.9753393	0.084251426	0.012365177	2.7541136e-18	-0	65
9.002028014086432e-10	0.98088026	0.0685839	0.0150409285	1.1838905e-18	-0	65
9.101478730971878e-10	0.9824754	0.03306551	0.02010421	3.0379403e-18	-0	65
9.200660675655015e-10	0.9810489	0.01948779	0.011149516	2.189826e-18	-0	65
9.301877441266517e-10	0.97878546	0.010700118	0.0037161924	2.6415783e-18	-0	65
9.400231852480575e-10	0.9763631	-0.0007692077	0.0012635952	2.6470146e-18	-0	65
9.501801724796369e-10	0.9712922	-0.008827358	-2.6783118e-06	2.686999e-18	-0	65
9.601893895586335e-10	0.9742456	0.0027927319	-0.01717573	1.445525e-18	-0	65
9.700942136854567e-10	0.9770282	0.006089751	-0.016189856	3.3761428e-18	-0	65
9.80195625473664e-10	0.97807103	0.03880574	-0.026489194	3.0023498e-18	-0	65
9.900637023656403e-10	0.9754846	0.06971139	-0.016158013	2.1032238e-18	-0	65
1.0001786350495713e-09	0.9737251	0.09555728	-0.011743635	2.4096125e-18	-0	65
1.0100034001312548e-09	0.9750754	0.09471154	0.0017524083	2.4954745e-18	-0	65
1.0201829813355037e-09	0.97381514	0.091004424	0.00012558118	1.8310718e-18	-0	65
1.0300817394264536e-09	0.9695712	0.08920044	0.0007676944	2.0699924e-18	-0	65
1.0400632862818157e-09	0.9658879	0.08690395	0.0082538	3.1354866e-18	-0	65
1.05017685825182e-09	0.9640186	0.08389763	-0.004888466	2.1208326e-18	-0	65
1.0601786405454951e-09	0.96621203	0.09188074	-0.00074590597	1.838125e-18	-0	65
1.0700895091377912e-09	0.968861	0.084043786	0.011360532	1.7392455e-18	-0	65
1.0800785702586543e-09	0.9692306	0.06466518	0.0086745275	2.0624299e-18	-0	65
1.0900544707290462e-09	0.97008556	0.041810755	0.0039220103	3.3181395e-18	-0	65
1.100052435027119e-09	0.9713064	0.04160718	0.0017812215	2.0417055e-18	-0	65
1.1101112220700698e-09	0.9714893	0.020693276	0.012098511	2.7251449e-18	-0	65
1.1200145460931242e-09	0.9730151	0.0111670485	-0.0004757062	3.193584e-18	-0	65
1.1301334959396663e-09	0.97394305	-0.0060269013	-0.0037731482	1.7084974e-18	-0	65
1.1400853401818816e-09	0.9738469	0.007763051	-0.007879563	1.879929e-18	-0	65
1.1500647426546667e-09	0.9771806	0.01640048	-0.005311702	2.1884635e-18	-0	65
1.1600552256315581e-09	0.9776267	0.031131031	-0.01136381	2.8725356e-18	-0	65
1.1700573738484639e-09	0.97486526	0.053092662	-0.011307753	1.7097571e-18	-0	65
1.1801858388095906e-09	0.9746652	0.042800166	0.0032068957	1.1611321e-18	-0	65
1.1901032450149138e-09	0.9725407	0.03372579	0.010193987	3.9230484e-18	-0	65
1.200191023776347e-09	0.9741858	0.011435817	0.021028925	2.8099011e-18	-0	65
1.210136627189368e-09	0.9790872	-0.021760019	0.017114887	1.9999685e-18	-0	65
1.2201976981524523e-09	0.98046094	-0.030560741	0.009257933	2.288226e-18	-0	65
1.2300696271948445e-09	0.98250914	-0.01969849	0.005938463	3.2562567e-18	-0	65
1.2401166405677666e-09	0.979872	-0.029082298	0.00012720303	9.656156e-19	-0	65
1.2501113382447987e-09	0.979282	-0.0295549	-0.00041084175	4.082128e-18	-0	65
1.2600089304754287e-09	0.9818665	-0.008907883	-0.013168132	1.7206981e-18	-0	65
1.2700635825479296e-09	0.97673744	-0.0056361062	-0.00836773	2.9083292e-18	-0	65
1.2801675920429942e-09	0.97364724	0.026346471	-0.023300141	3.3865742e-18	-0	65
1.290046347316015e-09	0.9745471	0.06806559	-0.017070604	2.7153316e-18	-0	65
1.3000029868819798e-09	0.9737981	0.069858626	0.00036177176	3.2209303e-18	-0	65
1.3101924789758016e-09	0.9764799	0.058278743	0.009498607	1.6222749e-18	-0	65
1.3200941521991722e-09	0.97677785	0.048160274	0.008047952	2.531011e-18	-0	65
1.3300257282051035e-09	0.97687644	0.03850345	0.0037673598	2.7429638e-18	-0	65
1.3401456731541697e-09	0.97383565	0.016209632	0.009353171	3.856686e-18	-0	65
1.3501684978672461e-09	0.9743247	0.0059752404	0.0048697423	2.4289609e-18	-0	65
1.3601199918935796e-09	0.9743161	0.004485123	0.010512095	4.014178e-18	-0	65
1.3701038102755174e-09	0.9783574	-0.016037447	-0.010117883	2.4138232e-18	-0	65
1.3800395247736933e-09	0.9778432	-0.01005539	-0.002685542	3.3615398e-18	-0	65
1.3900750247536258e-09	0.9749175	-0.012511741	0.0043734866	3.402573e-18	-0	65
1.4001695455925151e-09	0.9773905	-0.01116507	0.004677847	2.3006416e-18	-0	65
1.4101556822025617e-09	0.9776239	-0.026852094	0.0017978472	2.3547694e-18	-0	65
1.4200981410294154e-09	0.97804093	-0.04510706	0.009362607	3.8189523e-18	-0	65
1.4300620652233993e-09	0.97842926	-0.04559464	0.012314643	9.877721e-19	-0	65
1.4401108189272372e-09	0.97625285	-0.059276097	0.022688584	1.9389155e-18	-0	65
1.4500938618187048e-09	0.97540826	-0.08334246	0.021351496	2.5156099e-18	-0	65
1.4600034681840229e-09	0.97049844	-0.122703925	0.012393849	4.0997185e-18	-0	65
1.4701625742488307e-09	0.9694726	-0.13266738	0.003915165	3.6349004e-18	-0	65
1.4801160858557395e-09	0.9653377	-0.14069705	-0.009063272	1.7281558e-18	-0	65
1.4900931543134451e-09	0.96729034	-0.13465935	-0.017135317	1.055323e-18	-0	65
1.5000081518505191e-09	0.9696283	-0.11186435	-0.006236211	4.030219e-18	-0	65
1.5101694375934482e-09	0.97278655	-0.08915538	-0.012044431	2.1694576e-18	-0	65
1.5201708842550404e-09	0.9726179	-0.07029638	-0.015317264	3.2286723e-18	-0	65
1.5301307371965643e-09	0.97275656	-0.04519009	-0.024233546	1.5199935e-18	-0	65
1.5400389105212591e-09	0.97211045	-0.012432539	-0.02945689	2.634547e-18	-0	65
1.5501119254063539e-09	0.9722518	0.01499373	-0.027397122	2.0269536e-18	-0	65
1.5600308149077115e-09	0.9707249	0.035313223	-0.024244731	3.9603687e-18	-0	65
1.5701588731616921e-09	0.96812165	0.06639858	-0.02694113	2.0451034e-18	-0	65
1.5800751246558944e-09	0.966561	0.10061433	-0.02011567	2.5350178e-18	-0	65
1.5900631036148109e-09	0.96794105	0.122949794	-0.012501182	1.7853724e-18	-0	65
1.6001187029846073e-09	0.9673221	0.13454458	0.0035133618	9.71559e-19	-0	65
1.6100890150065126e-09	0.9701607	0.12700409	0.008869922	3.3197666e-18	-0	65
1.6200380471667671e-09	0.97216076	0.09891979	0.011206192	2.0578105e-18	-0	65
1.6300351904489837e-09	0.9730284	0.08318663	0.015631545	4.1344237e-18	-0	65
1.6400983291900477e-09	0.97357976	0.075999364	0.014096373	2.7302548e-18	-0	65
1.6501701041176934e-09	0.9740898	0.042303164	0.014611115	2.2739766e-18	-0	65
1.660136194960777e-09	0.9773919	0.033762474	0.0153996935	2.7143857e-18	-0	65
1.6700206259359613e-09	0.9800401	0.009946134	0.015619822	2.5928684e-18	-0	65
1.6801131387941543e-09	0.97927636	-0.011828113	0.015992263	2.1123982e-18	-0	65
1.6900153470244259e-09	0.9768506	-0.039914373	0.017234294	2.483842e-18	-0	65
1.7000288053501002e-09	0.9744926	-0.053856377	0.013589506	1.960253e-18	-0	65
1.7101848837246613e-09	0.9717032	-0.06591843	0.011997181	3.1019029e-18	-0	65
1.72019223134485e-09	0.97392565	-0.06248319	0.0027038201	1.4502064e-18	-0	65
1.7300187274134603e-09	0.97206545	-0.07024527	0.0049082725	1.6605089e-18	-0	65
1.740033909824518e-09	0.9726055	-0.08174537	0.003184783	2.2536133e-18	-0	65
1.7501675357480966e-09	0.9755427	-0.084655784	0.017955368	2.7255864e-18	-0	65
1.7601468322872242e-09	0.9739081	-0.11061941	0.017483465	2.5460812e-18	-0	65
1.7700914733510794e-09	0.9699776	-0.11678224	0.023494342	1.7518819e-18	-0	65
1.7801381118908014e-09	0.96514124	-0.14267522	0.019933535	3.4970553e-18	-0	65
1.7901426861019411e-09	0.9609183	-0.17108546	0.009018724	1.6259592e-18	-0	65
1.800173496024961e-09	0.9621214	-0.17673692	-0.002869562	1.8191732e-18	-0	65
1.8100524963295295e-09	0.9602847	-0.17452717	-0.0024200964	2.9272441e-18	-0	65
1.8200976338753614e-09	0.9561505	-0.17481388	-0.0071094	2.6280455e-18	-0	65
1.8301771947134462e-09	0.9610608	-0.15601276	-0.010094116	3.8863696e-18	-0	65
1.8401466419410118e-09	0.9658314	-0.15119323	0.00015033972	1.8782497e-18	-0	65
1.8500220050885184e-09	0.9709458	-0.14609763	-0.009996806	8.136928e-19	-0	65
1.8600685908256988e-09	0.9756973	-0.11204647	-0.013639764	1.7767575e-18	-0	65
1.870089470217515e-09	0.9769242	-0.1172248	-0.0033839752	2.6006581e-18	-0	65
1.8801691954298762e-09	0.9718905	-0.13148738	-0.0019452991	2.312196e-18	-0	65
1.8901849384273575e-09	0.9630873	-0.15502092	-0.0059256647	1.72599e-18	-0	65
1.9001060598075848e-09	0.96067554	-0.15968382	-0.00799161	3.8245055e-18	-0	65
1.910055816443497e-09	0.9672696	-0.1379938	-0.008716088	3.019331e-18	-0	65
1.920179033350238e-09	0.9719936	-0.12044878	-0.0083866045	2.2651026e-18	-0	65
1.9300770581883046e-09	0.9739072	-0.09531608	-0.019154206	1.3136008e-18	-0	65
1.9401472265127476e-09	0.9777957	-0.08209298	-0.025047777	2.5533465e-18	-0	65
1.9500675512380467e-09	0.97996825	-0.058500975	-0.011073526	2.3590087e-18	-0	65
1.960085518459547e-09	0.9799175	-0.046565384	-0.016435621	3.512832e-18	-0	65
1.9700700520476443e-09	0.9761706	-0.027412219	-0.008375064	2.1268154e-18	-0	65
1.980193783996201e-09	0.9727345	-0.018991658	-0.0047258916	1.8618599e-18	-0	65
1.9900840852528055e-09	0.9692966	-0.010671689	-0.0013401753	1.0819035e-18	-0	65
2.0000595542985455e-09	0.97333705	-0.0061074514	0.006391045	1.8962158e-18	-0	65
2.010179839776451e-09	0.97566575	-0.020401273	0.027623724	2.1202864e-18	-0	65
2.0202023565042143e-09	0.97794396	-0.048994176	0.027650874	1.8733637e-18	-0	65
2.0300742017448865e-09	0.97743106	-0.08389971	0.032139048	1.9082982e-18	-0	65
2.0401140079799073e-09	0.9738875	-0.12739468	0.036315322	1.523543e-18	-0	65
2.0500093158050684e-09	0.96274656	-0.16489348	0.023428485	2.3279698e-18	-0	65
2.060062972089953e-09	0.9596653	-0.16980043	0.017828185	2.0493737e-18	-0	65
2.0701014768603443e-09	0.951673	-0.19357993	0.0057297903	4.327006e-18	-0	65
2.0800934309951353e-09	0.94812214	-0.19099143	0.0049438984	1.9544952e-18	-0	65
2.0901015180818424e-09	0.9506379	-0.19852944	-0.0073239785	2.1836758e-18	-0	65
2.1000235603557403e-09	0.9535801	-0.20511709	0.004692275	1.4374259e-18	-0	65
2.1101701854042207e-09	0.9533494	-0.22061576	0.022720609	3.126151e-18	-0	65
2.1200726888961352e-09	0.9504719	-0.24628116	0.025903715	3.2967238e-18	-0	65
2.1300544172246063e-09	0.9433462	-0.27595168	0.018070074	3.0532138e-18	-0	65
2.140166191522503e-09	0.93491876	-0.29956532	0.0180848	3.3961583e-18	-0	65
2.1500713772024675e-09	0.92846674	-0.3135005	0.018603073	9.07582e-19	-0	65
2.160147974374898e-09	0.9219623	-0.3234836	0.010804814	1.6822126e-18	-0	65
2.1701443723196e-09	0.9197422	-0.33285758	0.001365886	2.4523302e-18	-0	65
2.1801439169552714e-09	0.9239959	-0.3312957	0.0023877535	2.345415e-18	-0	65
2.190180331199692e-09	0.92707443	-0.3256182	-0.0056653377	1.6364698e-18	-0	65
2.2000732432765524e-09	0.9349138	-0.29978365	-0.0119527215	4.1875646e-18	-0	65
2.210053790234003e-09	0.9431458	-0.27272046	-0.014002035	2.0161092e-18	-0	65
2.220002654485703e-09	0.9450244	-0.25176293	-0.021673359	1.944275e-18	-0	65
2.2301050197521957e-09	0.9518582	-0.22941731	-0.01900201	2.1703013e-18	-0	65
2.240149894270024e-09	0.9521642	-0.22045177	-0.009382133	3.720419e-18	-0	65
2.2500763271486287e-09	0.95337445	-0.20748608	-0.008943225	2.8108445e-18	-0	65
2.2600321418911786e-09	0.95895594	-0.17789073	-0.01740489	3.0231191e-18	-0	65
2.27014766811911e-09	0.96635884	-0.14408907	-0.0142257605	1.8525702e-18	-0	65
2.280159929230499e-09	0.9681221	-0.15143055	0.002342866	2.489218e-18	-0	65
2.290129634553107e-09	0.9699194	-0.14780416	-0.011366267	1.4593632e-18	-0	65
2.300064899377458e-09	0.9694646	-0.14695144	-0.007887887	1.9416551e-18	-0	65
2.3100867473509413e-09	0.97315335	-0.12821035	-0.008175075	3.1795518e-18	-0	65
2.320107321995434e-09	0.97376806	-0.115439095	-0.0068493136	3.166175e-18	-0	65
2.3301878893375997e-09	0.9726445	-0.118150055	-0.00057216606	3.095077e-18	-0	65
2.3400624272220783e-09	0.97302276	-0.11779426	-0.0041358527	1.5542582e-18	-0	65
2.350053334471619e-09	0.9721398	-0.12863472	-0.012100907	1.8058031e-18	-0	65
2.3601229656894887e-09	0.971775	-0.12025449	-0.010675115	2.595155e-18	-0	65
2.3701762074696707e-09	0.9722063	-0.10199254	-0.016165378	2.213757e-18	-0	65
2.3801724229379215e-09	0.97182393	-0.07446175	-0.019247487	1.1558874e-18	-0	65
2.3901926383575264e-09	0.9748169	-0.025428236	-0.026280373	2.0869544e-18	-0	65
2.400195703141656e-09	0.9721081	0.022597479	-0.03738263	1.2644318e-18	-0	65
2.4101097341534508e-09	0.9746732	0.07848171	-0.042379368	2.7326964e-18	-0	65
2.420146182318625e-09	0.9691996	0.14350542	-0.031652965	2.9642555e-18	-0	65
2.430070274213883e-09	0.96550184	0.17807469	-0.018698705	3.622206e-18	-0	65
2.4400354995441077e-09	0.9671033	0.1839411	-7.7968376e-05	3.509449e-18	-0	65
2.450125820214913e-09	0.96732116	0.18243045	-0.0018981206	2.1522154e-18	-0	65
2.4600369070599505e-09	0.9641069	0.18655832	0.0007495227	2.3087184e-18	-0	65
2.4701076327782162e-09	0.9585013	0.19965167	-0.0072374484	2.7034128e-18	-0	65
2.4800775361420203e-09	0.955252	0.2013263	0.0010866123	3.2408823e-18	-0	65
2.4901972251624743e-09	0.95734894	0.16737795	0.0063741016	2.219531e-18	-0	65
2.500005685532116e-09	0.96209466	0.14149693	0.009454611	2.9111273e-18	-0	65
2.5101276373898975e-09	0.9664094	0.13287486	0.0210132	3.333109e-18	-0	65
2.520001963074753e-09	0.97662234	0.078037106	0.034220494	2.1019433e-18	-0	65
2.5301337673421796e-09	0.98162687	0.038733065	0.025279293	1.804195e-18	-0	65
2.5401763848321437e-09	0.98346996	0.0015666301	0.02925553	1.802766e-18	-0	65
2.5501541738035908e-09	0.98454493	-0.019883102	0.013167347	3.0656134e-18	-0	65
2.5601320536886434e-09	0.9819613	-0.034308553	0.009790035	3.2184634e-18	-0	65
2.570004412781788e-09	0.97668815	-0.042432565	0.005214777	3.855501e-18	-0	65
2.580064240750755e-09	0.9740895	-0.060807887	0.016676284	1.9543068e-18	-0	65
2.5901907846950973e-09	0.9701465	-0.07841379	0.024459267	2.0352634e-18	-0	65
2.6001074837868146e-09	0.96816593	-0.11636825	0.018520327	3.2426506e-18	-0	65
2.61002945598308e-09	0.96908116	-0.14201222	0.008332101	2.3556565e-18	-0	65
2.6200230091937526e-09	0.9715846	-0.13849282	-0.004413066	2.548883e-18	-0	65
2.6300641585102773e-09	0.9740576	-0.12597033	-0.007038188	1.9640103e-18	-0	65
2.640015738767259e-09	0.972721	-0.12256947	0.0029698953	2.5234673e-18	-0	65
2.650009887561845e-09	0.97240555	-0.11001825	-0.000630803	2.498511e-18	-0	65
2.6601344627430993e-09	0.96996146	-0.11284121	-0.0027371675	3.3442397e-18	-0	65
2.6701672294948925e-09	0.96838427	-0.12407297	-0.00042798457	1.3404374e-18	-0	65
2.6801759943245282e-09	0.9661328	-0.12173978	-0.0013653309	2.1651676e-18	-0	65
2.6901622176959154e-09	0.96500784	-0.10648309	-0.005731678	3.826076e-18	-0	65
2.7001283185061877e-09	0.9682104	-0.101769246	0.0016756058	4.036574e-18	-0	65
2.710059277329221e-09	0.9722063	-0.100239575	0.0037698606	2.1373797e-18	-0	65
2.720009834042684e-09	0.9698089	-0.11147277	0.010039629	3.2257593e-18	-0	65
2.730022953042297e-09	0.9694235	-0.1162889	0.0066674068	3.0257363e-18	-0	65
2.7401867114396337e-09	0.9676902	-0.12371916	-0.004531644	3.7583034e-18	-0	65
2.7500020293823822e-09	0.96777564	-0.1114863	-0.013727274	3.2221958e-18	-0	65
2.76012351845305e-09	0.96946365	-0.0768648	-0.014180485	2.2600967e-18	-0	65
2.7700746340429924e-09	0.9686652	-0.045780025	-0.015173634	4.0720542e-18	-0	65
2.7801113738504632e-09	0.9711303	-0.037570935	-0.010883262	3.2085259e-18	-0	65
2.790084959143599e-09	0.97397697	-0.024809266	-0.025152935	3.6085188e-18	-0	65
2.8001460300236276e-09	0.9729262	0.012530865	-0.032510333	2.0794814e-18	-0	65
2.8100878021505868e-09	0.97731173	0.05003481	-0.02330068	3.4250602e-18	-0	65
2.8201452150142804e-09	0.9784962	0.08788184	-0.011455841	3.3046773e-18	-0	65
2.830035941065254e-09	0.97966886	0.098426156	-0.0099920295	2.6618314e-18	-0	65
2.840143711032127e-09	0.975366	0.118245974	-0.0026471908	2.2242186e-18	-0	65
2.8500633877606124e-09	0.9711761	0.13040324	0.00026861214	2.5855722e-18	-0	65
2.8600070853457227e-09	0.9681612	0.12949353	0.008472064	1.0533408e-18	-0	65
2.8701152580162406e-09	0.96459085	0.12154716	0.005176608	1.4461981e-18	-0	65
2.8800312283847763e-09	0.9669643	0.12928417	0.011256597	1.434352e-18	-0	65
2.8901548088582613e-09	0.9704452	0.1246458	0.009726263	1.6920392e-18	-0	65
2.9000509981329517e-09	0.97136605	0.11366819	0.0043250583	3.3561426e-18	-0	65
2.9100002500708097e-09	0.97131693	0.10187893	0.0072528156	1.9436087e-18	-0	65
2.9200218757799674e-09	0.97045755	0.09583215	-0.00055957696	9.385607e-19	-0	65
2.930042547762263e-09	0.9654103	0.10197384	0.00067741	3.0249832e-18	-0	65
2.9400278248518623e-09	0.96617836	0.10863218	0.0035875668	2.5329342e-18	-0	65
2.9501287922903442e-09	0.9697106	0.116070576	0.0064475695	2.2382643e-18	-0	65
2.9600265574727955e-09	0.9710595	0.11615635	-0.0023751357	2.1800833e-18	-0	65
2.970155526188305e-09	0.9716592	0.12506431	-0.014450586	2.770135e-18	-0	65
2.9800982310934706e-09	0.96965396	0.13936742	-0.011991721	2.6178016e-18	-0	65
2.9900077412326442e-09	0.96682245	0.15899938	-0.0111897355	1.2651353e-18	-0	65
3.000158843112181e-09	0.9643217	0.17221509	-0.0042795585	1.600715e-18	-0	65
3.010059543947241e-09	0.9637583	0.17713714	0.0037047276	1.4845683e-18	-0	65
3.0200431486948707e-09	0.9653185	0.17131098	0.008872171	2.1356701e-18	-0	65
3.030193987032185e-09	0.9636884	0.1605243	0.008059138	2.581881e-18	-0	65
3.0401134219668077e-09	0.96707875	0.14829037	0.011100397	9.412153e-19	-0	65
3.050098956798892e-09	0.96652913	0.13641576	0.009363951	2.3224287e-18	-0	65
3.0600422867249874e-09	0.97021043	0.12563132	-0.0015939673	2.8544012e-18	-0	65
3.070051682420662e-09	0.97354996	0.116430506	0.0023786037	1.7194953e-18	-0	65
3.0801308860496743e-09	0.97527397	0.10627991	0.001895649	1.9632937e-18	-0	65
3.0901013850304905e-09	0.97457635	0.102717906	-0.0009201563	2.478635e-18	-0	65
3.1001605274006414e-09	0.97129804	0.10416108	-0.008528689	1.87266e-18	-0	65
3.110031345873116e-09	0.97001845	0.11777441	-0.009058043	2.1304363e-18	-0	65
3.120130954033672e-09	0.9685828	0.13040732	-0.005664641	3.032971e-18	-0	65
3.1301523176494013e-09	0.969078	0.14475632	0.0031374537	2.7658922e-18	-0	65
3.1401877568854686e-09	0.9658704	0.13760068	0.0068618883	2.5982932e-18	-0	65
3.150101465476942e-09	0.96223	0.14343034	0.003955435	3.5503254e-18	-0	65
3.160050264029585e-09	0.9679216	0.13071634	0.012643577	2.6796667e-18	-0	65
3.1700757010847007e-09	0.97106326	0.12535214	0.009566196	3.0192442e-18	-0	65
3.1800378006597384e-09	0.9754731	0.10536025	0.021061774	9.544856e-19	-0	65
3.190141420012004e-09	0.97956127	0.07647209	0.015721733	2.453371e-18	-0	65
3.2000250582739413e-09	0.97766834	0.06320196	0.019888677	3.0323542e-18	-0	65
3.210178295702359e-09	0.97677594	0.036999516	0.0145099405	3.2420471e-18	-0	65
3.2200888204538847e-09	0.9791604	0.008132518	0.017560147	1.9554045e-18	-0	65
3.23016001233846e-09	0.98092246	-0.0012771973	0.009029549	1.3803129e-18	-0	65
3.2401039188823517e-09	0.98131424	-0.013192908	0.010895998	3.4787995e-18	-0	65
3.2501153943679763e-09	0.9790459	-0.031260844	0.0108314	2.491811e-18	-0	65
3.260036947812521e-09	0.98110133	-0.045930814	0.01079589	1.4240071e-18	-0	65
3.270115081533097e-09	0.9794282	-0.05928684	0.0071364115	2.662899e-18	-0	65
3.2800612585604896e-09	0.9779289	-0.052857492	0.008001604	3.567355e-18	-0	65
3.290177161474676e-09	0.9732924	-0.081665196	0.009077931	1.52988e-18	-0	65
3.300188046311752e-09	0.97092396	-0.10953924	0.013377545	2.756666e-18	-0	65
3.3101834038231474e-09	0.97049326	-0.12413457	0.0051103327	3.338611e-18	-0	65
3.3201921957731416e-09	0.96978205	-0.12208082	0.0067566982	1.5675534e-18	-0	65
3.3301581517040494e-09	0.96953326	-0.13214937	0.01488021	2.0689065e-18	-0	65
3.3401047707470446e-09	0.96575224	-0.13930777	0.0053786975	3.1845384e-18	-0	65
3.3500842808188076e-09	0.967593	-0.15402095	0.008521019	2.2772222e-18	-0	65
3.3600621245224686e-09	0.9616178	-0.17067161	0.01946365	3.2211116e-18	-0	65
3.370028892600952e-09	0.956726	-0.19475032	0.02071078	1.6851509e-18	-0	65
3.3801622126937643e-09	0.9547304	-0.21395898	0.0073494134	2.3897078e-18	-0	65
3.390008993289537e-09	0.95436966	-0.22312152	0.010164141	2.2980759e-18	-0	65
3.4001573729154316e-09	0.95277256	-0.2334358	0.01525605	2.1152549e-18	-0	65
3.41005108312337e-09	0.9504522	-0.24334158	0.012425606	3.1416605e-18	-0	65
3.4200733854715557e-09	0.94273305	-0.26804152	0.0039458387	4.922739e-18	-0	65
3.4301185708607966e-09	0.94965506	-0.25896248	0.0074268486	1.8862243e-18	-0	65
3.440015070810249e-09	0.94359475	-0.27784538	0.010428999	2.3201515e-18	-0	65
3.4500837523187735e-09	0.93940556	-0.2884426	0.0066240616	1.6015661e-18	-0	65
3.460179579530114e-09	0.9397836	-0.2821234	-0.010636936	2.6839048e-18	-0	65
3.4701470333628274e-09	0.9410737	-0.27659932	-0.004440858	1.0576538e-18	-0	65
3.480039551884861e-09	0.9404339	-0.2715485	-0.009425923	2.8171485e-18	-0	65
3.4900855850270843e-09	0.94358224	-0.26371557	-0.0068038376	3.3937128e-18	-0	65
3.500139666381194e-09	0.9450551	-0.24383181	-0.016313069	3.0698317e-18	-0	65
3.510165622219487e-09	0.94627434	-0.23199965	-0.011242828	2.0328437e-18	-0	65
3.520149187059164e-09	0.9540407	-0.20799792	-0.007062068	3.0018488e-18	-0	65
3.530004247764361e-09	0.95809853	-0.18756774	-0.01533824	7.407353e-19	-0	65
3.540029217299839e-09	0.95984703	-0.17922622	-0.001540228	1.5649667e-18	-0	65
3.550172674740136e-09	0.95747423	-0.18376242	0.005364106	1.4696789e-18	-0	65
3.5600133741733887e-09	0.9581372	-0.19315325	0.008560564	3.631332e-18	-0	65
3.5700407557087486e-09	0.9569079	-0.21245544	0.007959952	2.7052816e-18	-0	65
3.580047343830048e-09	0.95839846	-0.21677215	0.0044375914	1.4804094e-18	-0	65
3.5901461715106735e-09	0.95916224	-0.21137945	0.001982275	1.2367374e-18	-0	65
3.600000593305888e-09	0.956742	-0.21664993	0.0016641765	2.0948603e-18	-0	65
3.610144476384971e-09	0.9561244	-0.2168054	-0.0021085027	3.08214e-18	-0	65
3.620086519968017e-09	0.96221155	-0.20203167	-0.010732572	1.3677395e-18	-0	65
3.630018014146065e-09	0.96762556	-0.17047718	-0.021801488	1.7662182e-18	-0	65
3.6400426389937285e-09	0.9697574	-0.15154366	-0.015322365	3.3584652e-18	-0	65
3.6500776337920444e-09	0.97014785	-0.12708876	-0.018008662	2.5225532e-18	-0	65
3.660176158003693e-09	0.9670122	-0.12010534	-0.01781022	2.8112509e-18	-0	65
3.670145544661757e-09	0.9680438	-0.09037337	-0.021607717	2.531789e-18	-0	65
3.6800586494162104e-09	0.9662238	-0.06996295	-0.02395104	3.380686e-18	-0	65
3.6901078378125363e-09	0.97150207	-0.026181703	-0.02923798	2.5041621e-18	-0	65
3.7000206672753797e-09	0.9769719	0.025784021	-0.041517004	3.0238874e-18	-0	65
3.710082036871807e-09	0.9786422	0.056301557	-0.028219175	1.6006094e-18	-0	65
3.7201528104472906e-09	0.9775798	0.08666579	-0.030668503	3.2220858e-18	-0	65
3.730135446847727e-09	0.9750782	0.106988885	-0.019960798	1.6878271e-18	-0	65
3.7400801040946315e-09	0.9673393	0.13484985	-0.019760529	2.9985791e-18	-0	65
3.75006596766128e-09	0.9630112	0.16115515	-0.015798585	2.3561762e-18	-0	65
3.760015398886764e-09	0.96259755	0.18433243	-0.0092280805	2.00352e-18	-0	65
3.770139861727251e-09	0.9647105	0.18746175	0.004299352	1.8995326e-18	-0	65
3.780040128732146e-09	0.967336	0.17712133	0.011894115	2.4639717e-18	-0	65
3.790057084530699e-09	0.9676627	0.16584255	0.01410376	1.425792e-18	-0	65
3.800148625043925e-09	0.9658743	0.15634055	0.002810788	2.6289152e-18	-0	65
3.810148585026592e-09	0.9617172	0.15068828	0.015644068	2.4694185e-18	-0	65
3.8201079321539515e-09	0.9641881	0.1369385	0.014748707	2.5017172e-18	-0	65
3.8300513213352404e-09	0.9695768	0.11760883	0.00981537	2.6184894e-18	-0	65
3.840186394013195e-09	0.9738386	0.10876094	0.007898122	2.1810552e-18	-0	65
3.850080686587495e-09	0.97484744	0.09904302	0.008278202	2.5574487e-18	-0	65
3.860009267719812e-09	0.97725546	0.077556975	0.017876439	1.7118962e-18	-0	65
3.87008310137526e-09	0.9772231	0.045754906	0.005402237	1.6966e-18	-0	65