//mumax 3.10 [windows_amd64 go1.11.6(gc) CUDA-11.0]
//GPU info: GeForce MX150(2048MB), CUDA Driver 11.0, cc=6.1, using cc=61 PTX
//(c) Arne Vansteenkiste, Dynamat LAB, Ghent University, Belgium
//This is free software without any warranty. See license.txt
//********************************************************************//
//  If you use mumax in any work or publication,                      //
//  we kindly ask you to cite the references in references.bib        //
//********************************************************************//
//output directory: c:\Jonathan\UGent\Masterproef\inputfiles\biaxial_island\biaxial_island_shape.out/
Nxy := 128
Nz := 1
SetGridSize(Nxy, Nxy, Nz)
SetCellSize(1e-9, 1e-9, 5e-9/Nz)
Msat = 800e3
Aex = 13e-12
print("Exchange length:", Sqrt((2*Aex.GetRegion(0))/(mu0*Pow(Msat.GetRegion(0), 2))))
//Exchange length: 5.685802385313737e-09
TableAdd(E_total)
TableAdd(E_zeeman)
angle := 0.0
roundness := 1.0
size := 128
TableAddVar(angle, "Angle", "rad")
TableAddVar(roundness, "Roundness", "")
TableAddVar(size, "Size", "nm")
angle0 := angle
roundness0 := roundness
size0 := size
for size = size0; size >= 16; size = size * 0.5 {
	for roundness = roundness0; roundness >= 0.1; roundness -= 0.01 {
		print(sprintf("Short axis: %.2f nm", roundness*size))
		print(sprintf("Long axis: %d nm", size))
		geometry := Ellipse(size*1e-9, size*roundness*1e-9)
		geometry = geometry.Add(geometry.RotZ(Pi / 2))
		SetGeom(geometry)
		for angle = angle0; angle <= Pi/4; angle += Pi / 4 {
			m = Uniform(cos(angle), sin(angle), 0)
			B_ext = vector(0.001*cos(angle), 0.001*sin(angle), 0)
			minimize()
			TableSave()
		}
	}
}
//Short axis: 128.00 nm
//Long axis: 128 nm
//Short axis: 126.72 nm
//Long axis: 128 nm
//Short axis: 125.44 nm
//Long axis: 128 nm
//Short axis: 124.16 nm
//Long axis: 128 nm
//Short axis: 122.88 nm
//Long axis: 128 nm
//Short axis: 121.60 nm
//Long axis: 128 nm
//Short axis: 120.32 nm
//Long axis: 128 nm
//Short axis: 119.04 nm
//Long axis: 128 nm
//Short axis: 117.76 nm
//Long axis: 128 nm
//Short axis: 116.48 nm
//Long axis: 128 nm
//Short axis: 115.20 nm
//Long axis: 128 nm
//Short axis: 113.92 nm
//Long axis: 128 nm
//Short axis: 112.64 nm
//Long axis: 128 nm
//Short axis: 111.36 nm
//Long axis: 128 nm
//Short axis: 110.08 nm
//Long axis: 128 nm
//Short axis: 108.80 nm
//Long axis: 128 nm
//Short axis: 107.52 nm
//Long axis: 128 nm
//Short axis: 106.24 nm
//Long axis: 128 nm
//Short axis: 104.96 nm
//Long axis: 128 nm
//Short axis: 103.68 nm
//Long axis: 128 nm
//Short axis: 102.40 nm
//Long axis: 128 nm
//Short axis: 101.12 nm
//Long axis: 128 nm
//Short axis: 99.84 nm
//Long axis: 128 nm
//Short axis: 98.56 nm
//Long axis: 128 nm
//Short axis: 97.28 nm
//Long axis: 128 nm
//Short axis: 96.00 nm
//Long axis: 128 nm
//Short axis: 94.72 nm
//Long axis: 128 nm
//Short axis: 93.44 nm
//Long axis: 128 nm
//Short axis: 92.16 nm
//Long axis: 128 nm
//Short axis: 90.88 nm
//Long axis: 128 nm
//Short axis: 89.60 nm
//Long axis: 128 nm
//Short axis: 88.32 nm
//Long axis: 128 nm
//Short axis: 87.04 nm
//Long axis: 128 nm
//Short axis: 85.76 nm
//Long axis: 128 nm
//Short axis: 84.48 nm
//Long axis: 128 nm
//Short axis: 83.20 nm
//Long axis: 128 nm
//Short axis: 81.92 nm
//Long axis: 128 nm
//Short axis: 80.64 nm
//Long axis: 128 nm
//Short axis: 79.36 nm
//Long axis: 128 nm
//Short axis: 78.08 nm
//Long axis: 128 nm
//Short axis: 76.80 nm
//Long axis: 128 nm
//Short axis: 75.52 nm
//Long axis: 128 nm
//Short axis: 74.24 nm
//Long axis: 128 nm
//Short axis: 72.96 nm
//Long axis: 128 nm
//Short axis: 71.68 nm
//Long axis: 128 nm
//Short axis: 70.40 nm
//Long axis: 128 nm
//Short axis: 69.12 nm
//Long axis: 128 nm
//Short axis: 67.84 nm
//Long axis: 128 nm
//Short axis: 66.56 nm
//Long axis: 128 nm
//Short axis: 65.28 nm
//Long axis: 128 nm
//Short axis: 64.00 nm
//Long axis: 128 nm
//Short axis: 62.72 nm
//Long axis: 128 nm
//Short axis: 61.44 nm
//Long axis: 128 nm
//Short axis: 60.16 nm
//Long axis: 128 nm
//Short axis: 58.88 nm
//Long axis: 128 nm
//Short axis: 57.60 nm
//Long axis: 128 nm
//Short axis: 56.32 nm
//Long axis: 128 nm
//Short axis: 55.04 nm
//Long axis: 128 nm
//Short axis: 53.76 nm
//Long axis: 128 nm
//Short axis: 52.48 nm
//Long axis: 128 nm
//Short axis: 51.20 nm
//Long axis: 128 nm
//Short axis: 49.92 nm
//Long axis: 128 nm
//Short axis: 48.64 nm
//Long axis: 128 nm
//Short axis: 47.36 nm
//Long axis: 128 nm
//Short axis: 46.08 nm
//Long axis: 128 nm
//Short axis: 44.80 nm
//Long axis: 128 nm
//Short axis: 43.52 nm
//Long axis: 128 nm
//Short axis: 42.24 nm
//Long axis: 128 nm
//Short axis: 40.96 nm
//Long axis: 128 nm
//Short axis: 39.68 nm
//Long axis: 128 nm
//Short axis: 38.40 nm
//Long axis: 128 nm
//Short axis: 37.12 nm
//Long axis: 128 nm
//Short axis: 35.84 nm
//Long axis: 128 nm
//Short axis: 34.56 nm
//Long axis: 128 nm
//Short axis: 33.28 nm
//Long axis: 128 nm
//Short axis: 32.00 nm
//Long axis: 128 nm
//Short axis: 30.72 nm
//Long axis: 128 nm
//Short axis: 29.44 nm
//Long axis: 128 nm
//Short axis: 28.16 nm
//Long axis: 128 nm
//Short axis: 26.88 nm
//Long axis: 128 nm
//Short axis: 25.60 nm
//Long axis: 128 nm
//Short axis: 24.32 nm
//Long axis: 128 nm
//Short axis: 23.04 nm
//Long axis: 128 nm
//Short axis: 21.76 nm
//Long axis: 128 nm
//Short axis: 20.48 nm
//Long axis: 128 nm
//Short axis: 19.20 nm
//Long axis: 128 nm
//Short axis: 17.92 nm
//Long axis: 128 nm
//Short axis: 16.64 nm
//Long axis: 128 nm
//Short axis: 15.36 nm
//Long axis: 128 nm
//Short axis: 14.08 nm
//Long axis: 128 nm
//Short axis: 64.00 nm
//Long axis: 64 nm
//Short axis: 63.36 nm
//Long axis: 64 nm
//Short axis: 62.72 nm
//Long axis: 64 nm
//Short axis: 62.08 nm
//Long axis: 64 nm
//Short axis: 61.44 nm
//Long axis: 64 nm
//Short axis: 60.80 nm
//Long axis: 64 nm
//Short axis: 60.16 nm
//Long axis: 64 nm
//Short axis: 59.52 nm
//Long axis: 64 nm
//Short axis: 58.88 nm
//Long axis: 64 nm
//Short axis: 58.24 nm
//Long axis: 64 nm
//Short axis: 57.60 nm
//Long axis: 64 nm
//Short axis: 56.96 nm
//Long axis: 64 nm
//Short axis: 56.32 nm
//Long axis: 64 nm
//Short axis: 55.68 nm
//Long axis: 64 nm
//Short axis: 55.04 nm
//Long axis: 64 nm
//Short axis: 54.40 nm
//Long axis: 64 nm
//Short axis: 53.76 nm
//Long axis: 64 nm
//Short axis: 53.12 nm
//Long axis: 64 nm
//Short axis: 52.48 nm
//Long axis: 64 nm
//Short axis: 51.84 nm
//Long axis: 64 nm
//Short axis: 51.20 nm
//Long axis: 64 nm
//Short axis: 50.56 nm
//Long axis: 64 nm
//Short axis: 49.92 nm
//Long axis: 64 nm
//Short axis: 49.28 nm
//Long axis: 64 nm
//Short axis: 48.64 nm
//Long axis: 64 nm
//Short axis: 48.00 nm
//Long axis: 64 nm
//Short axis: 47.36 nm
//Long axis: 64 nm
//Short axis: 46.72 nm
//Long axis: 64 nm
//Short axis: 46.08 nm
//Long axis: 64 nm
//Short axis: 45.44 nm
//Long axis: 64 nm
//Short axis: 44.80 nm
//Long axis: 64 nm
//Short axis: 44.16 nm
//Long axis: 64 nm
//Short axis: 43.52 nm
//Long axis: 64 nm
//Short axis: 42.88 nm
//Long axis: 64 nm
//Short axis: 42.24 nm
//Long axis: 64 nm
//Short axis: 41.60 nm
//Long axis: 64 nm
//Short axis: 40.96 nm
//Long axis: 64 nm
//Short axis: 40.32 nm
//Long axis: 64 nm
//Short axis: 39.68 nm
//Long axis: 64 nm
//Short axis: 39.04 nm
//Long axis: 64 nm
//Short axis: 38.40 nm
//Long axis: 64 nm
//Short axis: 37.76 nm
//Long axis: 64 nm
//Short axis: 37.12 nm
//Long axis: 64 nm
//Short axis: 36.48 nm
//Long axis: 64 nm
//Short axis: 35.84 nm
//Long axis: 64 nm
//Short axis: 35.20 nm
//Long axis: 64 nm
//Short axis: 34.56 nm
//Long axis: 64 nm
//Short axis: 33.92 nm
//Long axis: 64 nm
//Short axis: 33.28 nm
//Long axis: 64 nm
//Short axis: 32.64 nm
//Long axis: 64 nm
//Short axis: 32.00 nm
//Long axis: 64 nm
//Short axis: 31.36 nm
//Long axis: 64 nm
//Short axis: 30.72 nm
//Long axis: 64 nm
//Short axis: 30.08 nm
//Long axis: 64 nm
//Short axis: 29.44 nm
//Long axis: 64 nm
//Short axis: 28.80 nm
//Long axis: 64 nm
//Short axis: 28.16 nm
//Long axis: 64 nm
//Short axis: 27.52 nm
//Long axis: 64 nm
//Short axis: 26.88 nm
//Long axis: 64 nm
//Short axis: 26.24 nm
//Long axis: 64 nm
//Short axis: 25.60 nm
//Long axis: 64 nm
//Short axis: 24.96 nm
//Long axis: 64 nm
//Short axis: 24.32 nm
//Long axis: 64 nm
//Short axis: 23.68 nm
//Long axis: 64 nm
//Short axis: 23.04 nm
//Long axis: 64 nm
//Short axis: 22.40 nm
//Long axis: 64 nm
//Short axis: 21.76 nm
//Long axis: 64 nm
//Short axis: 21.12 nm
//Long axis: 64 nm
//Short axis: 20.48 nm
//Long axis: 64 nm
//Short axis: 19.84 nm
//Long axis: 64 nm
//Short axis: 19.20 nm
//Long axis: 64 nm
//Short axis: 18.56 nm
//Long axis: 64 nm
//Short axis: 17.92 nm
//Long axis: 64 nm
//Short axis: 17.28 nm
//Long axis: 64 nm
//Short axis: 16.64 nm
//Long axis: 64 nm
//Short axis: 16.00 nm
//Long axis: 64 nm
//Short axis: 15.36 nm
//Long axis: 64 nm
//Short axis: 14.72 nm
//Long axis: 64 nm
//Short axis: 14.08 nm
//Long axis: 64 nm
//Short axis: 13.44 nm
//Long axis: 64 nm
//Short axis: 12.80 nm
//Long axis: 64 nm
//Short axis: 12.16 nm
//Long axis: 64 nm
//Short axis: 11.52 nm
//Long axis: 64 nm
//Short axis: 10.88 nm
//Long axis: 64 nm
//Short axis: 10.24 nm
//Long axis: 64 nm
//Short axis: 9.60 nm
//Long axis: 64 nm
//Short axis: 8.96 nm
//Long axis: 64 nm
//Short axis: 8.32 nm
//Long axis: 64 nm
//Short axis: 7.68 nm
//Long axis: 64 nm
//Short axis: 7.04 nm
//Long axis: 64 nm
//Short axis: 32.00 nm
//Long axis: 32 nm
//Short axis: 31.68 nm
//Long axis: 32 nm
//Short axis: 31.36 nm
//Long axis: 32 nm
//Short axis: 31.04 nm
//Long axis: 32 nm
//Short axis: 30.72 nm
//Long axis: 32 nm
//Short axis: 30.40 nm
//Long axis: 32 nm
//Short axis: 30.08 nm
//Long axis: 32 nm
//Short axis: 29.76 nm
//Long axis: 32 nm
//Short axis: 29.44 nm
//Long axis: 32 nm
//Short axis: 29.12 nm
//Long axis: 32 nm
//Short axis: 28.80 nm
//Long axis: 32 nm
//Short axis: 28.48 nm
//Long axis: 32 nm
//Short axis: 28.16 nm
//Long axis: 32 nm
//Short axis: 27.84 nm
//Long axis: 32 nm
//Short axis: 27.52 nm
//Long axis: 32 nm
//Short axis: 27.20 nm
//Long axis: 32 nm
//Short axis: 26.88 nm
//Long axis: 32 nm
//Short axis: 26.56 nm
//Long axis: 32 nm
//Short axis: 26.24 nm
//Long axis: 32 nm
//Short axis: 25.92 nm
//Long axis: 32 nm
//Short axis: 25.60 nm
//Long axis: 32 nm
//Short axis: 25.28 nm
//Long axis: 32 nm
//Short axis: 24.96 nm
//Long axis: 32 nm
//Short axis: 24.64 nm
//Long axis: 32 nm
//Short axis: 24.32 nm
//Long axis: 32 nm
//Short axis: 24.00 nm
//Long axis: 32 nm
//Short axis: 23.68 nm
//Long axis: 32 nm
//Short axis: 23.36 nm
//Long axis: 32 nm
//Short axis: 23.04 nm
//Long axis: 32 nm
//Short axis: 22.72 nm
//Long axis: 32 nm
//Short axis: 22.40 nm
//Long axis: 32 nm
//Short axis: 22.08 nm
//Long axis: 32 nm
//Short axis: 21.76 nm
//Long axis: 32 nm
//Short axis: 21.44 nm
//Long axis: 32 nm
//Short axis: 21.12 nm
//Long axis: 32 nm
//Short axis: 20.80 nm
//Long axis: 32 nm
//Short axis: 20.48 nm
//Long axis: 32 nm
//Short axis: 20.16 nm
//Long axis: 32 nm
//Short axis: 19.84 nm
//Long axis: 32 nm
//Short axis: 19.52 nm
//Long axis: 32 nm
//Short axis: 19.20 nm
//Long axis: 32 nm
//Short axis: 18.88 nm
//Long axis: 32 nm
//Short axis: 18.56 nm
//Long axis: 32 nm
//Short axis: 18.24 nm
//Long axis: 32 nm
//Short axis: 17.92 nm
//Long axis: 32 nm
//Short axis: 17.60 nm
//Long axis: 32 nm
//Short axis: 17.28 nm
//Long axis: 32 nm
//Short axis: 16.96 nm
//Long axis: 32 nm
//Short axis: 16.64 nm
//Long axis: 32 nm
//Short axis: 16.32 nm
//Long axis: 32 nm
//Short axis: 16.00 nm
//Long axis: 32 nm
//Short axis: 15.68 nm
//Long axis: 32 nm
//Short axis: 15.36 nm
//Long axis: 32 nm
//Short axis: 15.04 nm
//Long axis: 32 nm
//Short axis: 14.72 nm
//Long axis: 32 nm
//Short axis: 14.40 nm
//Long axis: 32 nm
//Short axis: 14.08 nm
//Long axis: 32 nm
//Short axis: 13.76 nm
//Long axis: 32 nm
//Short axis: 13.44 nm
//Long axis: 32 nm
//Short axis: 13.12 nm
//Long axis: 32 nm
//Short axis: 12.80 nm
//Long axis: 32 nm
//Short axis: 12.48 nm
//Long axis: 32 nm
//Short axis: 12.16 nm
//Long axis: 32 nm
//Short axis: 11.84 nm
//Long axis: 32 nm
//Short axis: 11.52 nm
//Long axis: 32 nm
//Short axis: 11.20 nm
//Long axis: 32 nm
//Short axis: 10.88 nm
//Long axis: 32 nm
//Short axis: 10.56 nm
//Long axis: 32 nm
//Short axis: 10.24 nm
//Long axis: 32 nm
//Short axis: 9.92 nm
//Long axis: 32 nm
//Short axis: 9.60 nm
//Long axis: 32 nm
//Short axis: 9.28 nm
//Long axis: 32 nm
//Short axis: 8.96 nm
//Long axis: 32 nm
//Short axis: 8.64 nm
//Long axis: 32 nm
//Short axis: 8.32 nm
//Long axis: 32 nm
//Short axis: 8.00 nm
//Long axis: 32 nm
//Short axis: 7.68 nm
//Long axis: 32 nm
//Short axis: 7.36 nm
//Long axis: 32 nm
//Short axis: 7.04 nm
//Long axis: 32 nm
//Short axis: 6.72 nm
//Long axis: 32 nm
//Short axis: 6.40 nm
//Long axis: 32 nm
//Short axis: 6.08 nm
//Long axis: 32 nm
//Short axis: 5.76 nm
//Long axis: 32 nm
//Short axis: 5.44 nm
//Long axis: 32 nm
//Short axis: 5.12 nm
//Long axis: 32 nm
//Short axis: 4.80 nm
//Long axis: 32 nm
//Short axis: 4.48 nm
//Long axis: 32 nm
//Short axis: 4.16 nm
//Long axis: 32 nm
//Short axis: 3.84 nm
//Long axis: 32 nm
//Short axis: 3.52 nm
//Long axis: 32 nm
//Short axis: 16.00 nm
//Long axis: 16 nm
//Short axis: 15.84 nm
//Long axis: 16 nm
//Short axis: 15.68 nm
//Long axis: 16 nm
//Short axis: 15.52 nm
//Long axis: 16 nm
//Short axis: 15.36 nm
//Long axis: 16 nm
//Short axis: 15.20 nm
//Long axis: 16 nm
//Short axis: 15.04 nm
//Long axis: 16 nm
//Short axis: 14.88 nm
//Long axis: 16 nm
//Short axis: 14.72 nm
//Long axis: 16 nm
//Short axis: 14.56 nm
//Long axis: 16 nm
//Short axis: 14.40 nm
//Long axis: 16 nm
//Short axis: 14.24 nm
//Long axis: 16 nm
//Short axis: 14.08 nm
//Long axis: 16 nm
//Short axis: 13.92 nm
//Long axis: 16 nm
//Short axis: 13.76 nm
//Long axis: 16 nm
//Short axis: 13.60 nm
//Long axis: 16 nm
//Short axis: 13.44 nm
//Long axis: 16 nm
//Short axis: 13.28 nm
//Long axis: 16 nm
//Short axis: 13.12 nm
//Long axis: 16 nm
//Short axis: 12.96 nm
//Long axis: 16 nm
//Short axis: 12.80 nm
//Long axis: 16 nm
//Short axis: 12.64 nm
//Long axis: 16 nm
//Short axis: 12.48 nm
//Long axis: 16 nm
//Short axis: 12.32 nm
//Long axis: 16 nm
//Short axis: 12.16 nm
//Long axis: 16 nm
//Short axis: 12.00 nm
//Long axis: 16 nm
//Short axis: 11.84 nm
//Long axis: 16 nm
//Short axis: 11.68 nm
//Long axis: 16 nm
//Short axis: 11.52 nm
//Long axis: 16 nm
//Short axis: 11.36 nm
//Long axis: 16 nm
//Short axis: 11.20 nm
//Long axis: 16 nm
//Short axis: 11.04 nm
//Long axis: 16 nm
//Short axis: 10.88 nm
//Long axis: 16 nm
//Short axis: 10.72 nm
//Long axis: 16 nm
//Short axis: 10.56 nm
//Long axis: 16 nm
//Short axis: 10.40 nm
//Long axis: 16 nm
//Short axis: 10.24 nm
//Long axis: 16 nm
//Short axis: 10.08 nm
//Long axis: 16 nm
//Short axis: 9.92 nm
//Long axis: 16 nm
//Short axis: 9.76 nm
//Long axis: 16 nm
//Short axis: 9.60 nm
//Long axis: 16 nm
//Short axis: 9.44 nm
//Long axis: 16 nm
//Short axis: 9.28 nm
//Long axis: 16 nm
//Short axis: 9.12 nm
//Long axis: 16 nm
//Short axis: 8.96 nm
//Long axis: 16 nm
//Short axis: 8.80 nm
//Long axis: 16 nm
//Short axis: 8.64 nm
//Long axis: 16 nm
//Short axis: 8.48 nm
//Long axis: 16 nm
//Short axis: 8.32 nm
//Long axis: 16 nm
//Short axis: 8.16 nm
//Long axis: 16 nm
//Short axis: 8.00 nm
//Long axis: 16 nm
//Short axis: 7.84 nm
//Long axis: 16 nm
//Short axis: 7.68 nm
//Long axis: 16 nm
//Short axis: 7.52 nm
//Long axis: 16 nm
//Short axis: 7.36 nm
//Long axis: 16 nm
//Short axis: 7.20 nm
//Long axis: 16 nm
//Short axis: 7.04 nm
//Long axis: 16 nm
//Short axis: 6.88 nm
//Long axis: 16 nm
//Short axis: 6.72 nm
//Long axis: 16 nm
//Short axis: 6.56 nm
//Long axis: 16 nm
//Short axis: 6.40 nm
//Long axis: 16 nm
//Short axis: 6.24 nm
//Long axis: 16 nm
//Short axis: 6.08 nm
//Long axis: 16 nm
//Short axis: 5.92 nm
//Long axis: 16 nm
//Short axis: 5.76 nm
//Long axis: 16 nm
//Short axis: 5.60 nm
//Long axis: 16 nm
//Short axis: 5.44 nm
//Long axis: 16 nm
//Short axis: 5.28 nm
//Long axis: 16 nm
//Short axis: 5.12 nm
//Long axis: 16 nm
//Short axis: 4.96 nm
//Long axis: 16 nm
//Short axis: 4.80 nm
//Long axis: 16 nm
//Short axis: 4.64 nm
//Long axis: 16 nm
//Short axis: 4.48 nm
//Long axis: 16 nm
//Short axis: 4.32 nm
//Long axis: 16 nm
//Short axis: 4.16 nm
//Long axis: 16 nm
//Short axis: 4.00 nm
//Long axis: 16 nm
//Short axis: 3.84 nm
//Long axis: 16 nm
//Short axis: 3.68 nm
//Long axis: 16 nm
//Short axis: 3.52 nm
//Long axis: 16 nm
//Short axis: 3.36 nm
//Long axis: 16 nm
//Short axis: 3.20 nm
//Long axis: 16 nm
//Short axis: 3.04 nm
//Long axis: 16 nm
//Short axis: 2.88 nm
//Long axis: 16 nm
//Short axis: 2.72 nm
//Long axis: 16 nm
//Short axis: 2.56 nm
//Long axis: 16 nm
//Short axis: 2.40 nm
//Long axis: 16 nm
//Short axis: 2.24 nm
//Long axis: 16 nm
//Short axis: 2.08 nm
//Long axis: 16 nm
//Short axis: 1.92 nm
//Long axis: 16 nm
//Short axis: 1.76 nm
//Long axis: 16 nm
//********************************************************************//
//Please cite the following references, relevant for your simulation. //
//See bibtex file in output folder for justification.                 //
//********************************************************************//
//   * Vansteenkiste et al., AIP Adv. 4, 107133 (2014).
//   * Exl et al., J. Appl. Phys. 115, 17D118 (2014).
