//mumax 3.10 [windows_amd64 go1.11.6(gc) CUDA-11.0]
//GPU info: GeForce MX150(2048MB), CUDA Driver 11.1, cc=6.1, using cc=61 PTX
//(c) Arne Vansteenkiste, Dynamat LAB, Ghent University, Belgium
//This is free software without any warranty. See license.txt
//********************************************************************//
//  If you use mumax in any work or publication,                      //
//  we kindly ask you to cite the references in references.bib        //
//********************************************************************//
//output directory: c:\Jonathan\UGent\Masterproef\inputfiles\biaxial_island\biaxial_island_shape.out/
Nxy := 128
Nz := 1
cellSize := 1e-9
thickness := 5e-9
SetGridSize(Nxy, Nxy, Nz)
SetCellSize(cellSize, cellSize, thickness/Nz)
Msat = 800e3
Aex = 13e-12
print("Exchange length:", Sqrt((2*Aex.GetRegion(0))/(mu0*Pow(Msat.GetRegion(0), 2))))
//Exchange length: 5.685802385313737e-09
TableAdd(E_total)
TableAdd(E_zeeman)
angle := 0.0
roundness := 0.66
size := 100
volume := 0.0
TableAddVar(angle, "Angle", "rad")
TableAddVar(roundness, "Roundness", "")
TableAddVar(size, "Size", "nm")
TableAddVar(cellSize, "Cell_size", "m")
TableAddVar(volume, "Volume", "m^3")
angle0 := angle
roundness0 := roundness
size0 := size
for size = size0; size >= size0; size = size * 0.5 {
	for roundness = roundness0; roundness >= 0.5; roundness -= 100 {
		print(sprintf("Short axis: %.3f nm", roundness*size))
		print(sprintf("Long axis: %d nm", size))
		geometry := Ellipse(size*1e-9, size*roundness*1e-9).RotZ(Pi / 4)
		geometry = geometry.Add(geometry.RotZ(Pi / 2))
		SetGeom(geometry)
		volume = geom.average() * Pow(cellSize*Nxy, 2) * thickness
		print(sprintf("Volume: %.3e m³", volume))
		SaveAs(geom, sprintf("geomPlus%d_%.2f", size, roundness))
		for angle = angle0; angle <= Pi/4+1e-3; angle += Pi / 128 {
			if abs(angle-Pi/4) < 1e-3 {
				angle = Pi / 4
			}
			m = Uniform(cos(angle), sin(angle), 0)
			B_ext = vector(0.01*cos(angle), 0.01*sin(angle), 0)
			minimize()
			TableSave()
		}
	}
}
//Short axis: 66.000 nm
//Long axis: 100 nm
//Volume: 3.250e-23 m³
//********************************************************************//
//Please cite the following references, relevant for your simulation. //
//See bibtex file in output folder for justification.                 //
//********************************************************************//
//   * Vansteenkiste et al., AIP Adv. 4, 107133 (2014).
//   * Exl et al., J. Appl. Phys. 115, 17D118 (2014).
