# t (s)	mx ()	my ()	mz ()	E_total (J)	Angle (rad)	Length (nm)
0	1	0	0	1.1800237e-18	0	100
0	0.99995	0.009999834	0	1.1800235e-18	0.01	100
0	0.9997999	0.019998666	0	1.1800238e-18	0.02	100
0	0.9995501	0.029995501	0	1.1800237e-18	0.03	100
0	0.9992001	0.03998933	0	1.1800237e-18	0.04	100
0	0.9987502	0.04997917	0	1.1800237e-18	0.05	100
0	0.9982005	0.059964	0	1.1800238e-18	0.06	100
0	0.9975511	0.06994284	0	1.1800238e-18	0.07	100
0	0.99680173	0.0799147	0	1.1800237e-18	0.08	100
0	0.99595284	0.089878544	0	1.1800237e-18	0.09	100
0	0.9950042	0.099833414	0	1.1800236e-18	0.1	100
0	0.993956	0.10977831	0	1.1800237e-18	0.11	100
0	0.9928086	0.119712204	0	1.1800238e-18	0.12	100
0	0.99156183	0.12963416	0	1.1800236e-18	0.13	100
0	0.9902162	0.13954312	0	1.1800237e-18	0.14	100
0	0.9887711	0.14943811	0	1.1800238e-18	0.15	100
0	0.9872273	0.15931824	0	1.1800239e-18	0.16	100
0	0.98558474	0.16918233	0	1.1800236e-18	0.17	100
0	0.9838436	0.17902955	0	1.1800236e-18	0.18	100
0	0.9820042	0.18885893	0	1.1800236e-18	0.19	100
0	0.9800666	0.19866933	0	1.1800237e-18	0.2	100
0	0.97803086	0.20845991	0	1.1800235e-18	0.21	100
0	0.97589755	0.21822967	0	1.1800241e-18	0.22	100
0	0.9736664	0.22797754	0	1.1800239e-18	0.23	100
0	0.9713379	0.23770264	0	1.1800238e-18	0.24	100
0	0.9689123	0.24740395	0	1.1800238e-18	0.25	100
0	0.96639	0.2570806	0	1.1800239e-18	0.26	100
0	0.963771	0.26673144	0	1.1800239e-18	0.27	100
0	0.96105546	0.27635565	0	1.1800238e-18	0.28	100
0	0.95824397	0.28595224	0	1.180024e-18	0.29	100
0	0.9553365	0.29552022	0	1.1800236e-18	0.3	100
0	0.9523337	0.30505863	0	1.1800238e-18	0.31	100
0	0.9492354	0.31456655	0	1.1800238e-18	0.32	100
0	0.94604236	0.324043	0	1.1800238e-18	0.33	100
0	0.9427547	0.33348712	0	1.1800238e-18	0.34	100
0	0.9393728	0.34289777	0	1.1800237e-18	0.35	100
0	0.9358969	0.35227427	0	1.1800235e-18	0.36	100
0	0.93232745	0.36161545	0	1.1800238e-18	0.37	100
0	0.92866457	0.37092045	0	1.1800235e-18	0.38	100
0	0.924909	0.38018838	0	1.1800235e-18	0.39	100
0	0.92106104	0.3894183	0	1.1800236e-18	0.4	100
0	0.9171208	0.39860934	0	1.1800236e-18	0.41	100
0	0.91308904	0.4077605	0	1.1800239e-18	0.42	100
0	0.90896565	0.4168708	0	1.1800238e-18	0.43	100
0	0.9047518	0.42593944	0	1.1800235e-18	0.44	100
0	0.9004472	0.4349655	0	1.1800235e-18	0.45	100
0	0.8960524	0.44394815	0	1.1800236e-18	0.46	100
0	0.89156824	0.45288622	0	1.1800236e-18	0.47	100
0	0.886995	0.46177924	0	1.1800239e-18	0.48	100
0	0.8823329	0.47062588	0	1.1800237e-18	0.49	100
0	0.8775826	0.47942555	0	1.1800238e-18	0.5	100
0	0.87274444	0.4881772	0	1.1800236e-18	0.51	100
0	0.86781913	0.49688008	0	1.1800237e-18	0.52	100
0	0.86280715	0.50553334	0	1.1800237e-18	0.53	100
0	0.8577087	0.51413596	0	1.1800237e-18	0.54	100
0	0.8525245	0.52268726	0	1.1800238e-18	0.55	100
0	0.84725505	0.53118616	0	1.1800235e-18	0.56	100
0	0.841901	0.539632	0	1.1800235e-18	0.57	100
0	0.8364627	0.548024	0	1.1800236e-18	0.58	100
0	0.8309406	0.556361	0	1.1800236e-18	0.59	100
0	0.82533574	0.5646425	0	1.1800237e-18	0.6	100
0	0.819648	0.57286745	0	1.1800236e-18	0.61	100
0	0.81387854	0.58103514	0	1.1800235e-18	0.62	100
0	0.80802745	0.58914477	0	1.1800236e-18	0.63	100
0	0.8020957	0.5971955	0	1.1800236e-18	0.64	100
0	0.79608387	0.6051864	0	1.1800236e-18	0.65	100
0	0.7899922	0.61311686	0	1.1800236e-18	0.66	100
0	0.78382164	0.6209859	0	1.1800237e-18	0.67	100
0	0.7775729	0.62879306	0	1.1800238e-18	0.68	100
0	0.771246	0.6365372	0	1.1800236e-18	0.69	100
0	0.7648422	0.64421755	0	1.1800235e-18	0.7	100
0	0.7583619	0.6518338	0	1.1800235e-18	0.71	100
0	0.7518058	0.65938467	0	1.1800235e-18	0.72	100
0	0.7451744	0.6668697	0	1.1800234e-18	0.73	100
0	0.7384685	0.6742879	0	1.1800236e-18	0.74	100
0	0.7316888	0.6816389	0	1.1800236e-18	0.75	100
0	0.72483605	0.6889214	0	1.1800237e-18	0.76	100
0	0.71791065	0.6961353	0	1.1800236e-18	0.77	100
0	0.7109135	0.7032795	0	1.1800238e-18	0.78	100
0	0.70384526	0.7103532	0	1.1800234e-18	0.79	100
0	0.69670665	0.717356	0	1.1800234e-18	0.8	100
0	0.68949854	0.72428715	0	1.1800237e-18	0.81	100
0	0.6822213	0.7311458	0	1.1800237e-18	0.82	100
0	0.6748757	0.7379314	0	1.1800234e-18	0.83	100
0	0.6674629	0.7446431	0	1.1800236e-18	0.84	100
0	0.6599831	0.7512805	0	1.1800234e-18	0.85	100
0	0.6524375	0.75784266	0	1.1800238e-18	0.86	100
0	0.6448266	0.76432896	0	1.1800234e-18	0.87	100
0	0.6371512	0.77073884	0	1.1800234e-18	0.88	100
0	0.629412	0.77707183	0	1.1800236e-18	0.89	100
0	0.62161005	0.7833269	0	1.1800236e-18	0.9	100
0	0.6137458	0.78950363	0	1.1800235e-18	0.91	100
0	0.60582024	0.79560155	0	1.1800236e-18	0.92	100
0	0.597834	0.80161995	0	1.1800235e-18	0.93	100
0	0.58978796	0.8075582	0	1.1800235e-18	0.94	100
0	0.58168304	0.8134155	0	1.1800234e-18	0.95	100
0	0.57352	0.8191916	0	1.1800234e-18	0.96	100
0	0.5652996	0.82488596	0	1.1800238e-18	0.97	100
0	0.55702263	0.8304974	0	1.1800238e-18	0.98	100
0	0.5486899	0.8360261	0	1.1800238e-18	0.99	100
0	0.5403024	0.841471	0	1.1800237e-18	1	100
0	0.53186077	0.84683186	0	1.1800234e-18	1.01	100
0	0.523366	0.852108	0	1.1800234e-18	1.02	100
0	0.51481897	0.85729903	0	1.1800236e-18	1.03	100
0	0.50622034	0.8624042	0	1.1800235e-18	1.04	100
0	0.49757114	0.86742324	0	1.1800234e-18	1.05	100
0	0.4888721	0.87235564	0	1.1800236e-18	1.06	100
0	0.48012426	0.87720037	0	1.1800234e-18	1.07	100
0	0.47132832	0.8819579	0	1.1800235e-18	1.08	100
0	0.4624854	0.88662696	0	1.1800238e-18	1.09	100
0	0.45359614	0.8912074	0	1.1800234e-18	1.1	100
0	0.44466156	0.8956987	0	1.1800236e-18	1.11	100
0	0.43568248	0.90010047	0	1.1800236e-18	1.12	100
0	0.42665982	0.9044123	0	1.1800234e-18	1.13	100
0	0.41759452	0.9086336	0	1.1800237e-18	1.14	100
0	0.4084874	0.9127639	0	1.1800234e-18	1.15	100
0	0.3993395	0.91680324	0	1.1800234e-18	1.16	100
0	0.3901517	0.9207505	0	1.1800234e-18	1.17	100
0	0.38092485	0.92460597	0	1.1800233e-18	1.18	100
0	0.37165982	0.92836905	0	1.1800234e-18	1.19	100
0	0.36235777	0.93203914	0	1.1800235e-18	1.2	100
0	0.3530194	0.9356159	0	1.1800234e-18	1.21	100
0	0.34364575	0.9390993	0	1.1800235e-18	1.22	100
0	0.33423772	0.9424888	0	1.1800238e-18	1.23	100
0	0.32479632	0.9457839	0	1.1800233e-18	1.24	100
0	0.31532234	0.94898444	0	1.1800234e-18	1.25	100
0	0.30581698	0.95209044	0	1.1800237e-18	1.26	100
0	0.29628092	0.95510095	0	1.1800235e-18	1.27	100
0	0.28671524	0.9580158	0	1.1800234e-18	1.28	100
0	0.27712092	0.96083516	0	1.1800236e-18	1.29	100
0	0.2674988	0.9635581	0	1.1800234e-18	1.3	100
0	0.25785	0.966185	0	1.1800235e-18	1.31	100
0	0.24817549	0.96871513	0	1.1800235e-18	1.32	100
0	0.23847607	0.9711483	0	1.1800234e-18	1.33	100
0	0.2287528	0.9734846	0	1.1800235e-18	1.34	100
0	0.21900672	0.97572345	0	1.1800234e-18	1.35	100
0	0.20923868	0.9778646	0	1.1800234e-18	1.36	100
0	0.19944972	0.979908	0	1.1800234e-18	1.37	100
0	0.18964083	0.9818536	0	1.1800234e-18	1.38	100
0	0.179813	0.9837009	0	1.1800234e-18	1.39	100
0	0.16996714	0.9854496	0	1.1800234e-18	1.4	100
0	0.16010429	0.9871003	0	1.1800234e-18	1.41	100
0	0.15022546	0.98865163	0	1.1800233e-18	1.42	100
0	0.14033161	0.9901044	0	1.1800232e-18	1.43	100
0	0.13042371	0.9914584	0	1.1800234e-18	1.44	100
0	0.12050276	0.9927131	0	1.1800233e-18	1.45	100
0	0.11056979	0.9938683	0	1.1800233e-18	1.46	100
0	0.10062573	0.9949244	0	1.1800233e-18	1.47	100
0	0.09067162	0.99588084	0	1.1800234e-18	1.48	100
0	0.08070846	0.9967377	0	1.1800234e-18	1.49	100
0	0.0707372	0.997495	0	1.1800234e-18	1.5	100
0	0.06075888	0.99815243	0	1.1800235e-18	1.51	100
0	0.050774485	0.9987103	0	1.1800236e-18	1.52	100
0	0.04078501	0.99916804	0	1.1800233e-18	1.53	100
0	0.030791461	0.99952596	0	1.1800233e-18	1.54	100
0	0.02079483	0.9997837	0	1.1800232e-18	1.55	100
0	0.010796117	0.9999418	0	1.1800235e-18	1.56	100
0	0.0007963267	0.9999996	0	1.1800233e-18	1.57	100
0	-0.009203543	0.99995774	0	1.1800236e-18	1.58	100
0	-0.019202493	0.9998158	0	1.1800233e-18	1.59	100
0	-0.029199528	0.9995737	0	1.1800236e-18	1.6	100
0	-0.039193626	0.99923164	0	1.1800234e-18	1.61	100
0	-0.049183827	0.9987897	0	1.1800234e-18	1.62	100
0	-0.0591691	0.9982479	0	1.1800234e-18	1.63	100
0	-0.06914845	0.99760646	0	1.1800234e-18	1.64	100
0	-0.07912089	0.99686515	0	1.1800232e-18	1.65	100
0	-0.08908543	0.99602395	0	1.1800234e-18	1.66	100
0	-0.09904104	0.9950833	0	1.1800234e-18	1.67	100
0	-0.10898676	0.9940432	0	1.1800234e-18	1.68	100
0	-0.11892157	0.9929037	0	1.1800234e-18	1.69	100
0	-0.1288445	0.99166495	0	1.1800235e-18	1.7	100
0	-0.13875452	0.99032676	0	1.1800234e-18	1.71	100
0	-0.1486507	0.9888899	0	1.1800233e-18	1.72	100
0	-0.158532	0.9873539	0	1.1800233e-18	1.73	100
0	-0.16839744	0.98571926	0	1.1800235e-18	1.74	100
0	-0.17824605	0.98398596	0	1.1800233e-18	1.75	100
0	-0.18807682	0.9821543	0	1.1800233e-18	1.76	100
0	-0.19788882	0.9802245	0	1.1800234e-18	1.77	100
0	-0.207681	0.9781967	0	1.1800234e-18	1.78	100
0	-0.21745242	0.9760709	0	1.1800234e-18	1.79	100
0	-0.22720212	0.9738476	0	1.1800234e-18	1.8	100
0	-0.23692906	0.97152686	0	1.1800234e-18	1.81	100
0	-0.2466323	0.96910906	0	1.1800234e-18	1.82	100
0	-0.25631085	0.96659446	0	1.1800234e-18	1.83	100
0	-0.26596388	0.96398294	0	1.1800234e-18	1.84	100
0	-0.27559024	0.9612753	0	1.1800234e-18	1.85	100
0	-0.28518903	0.9584713	0	1.1800234e-18	1.86	100
0	-0.29475936	0.9555714	0	1.1800236e-18	1.87	100
0	-0.30430016	0.9525763	0	1.1800235e-18	1.88	100
0	-0.3138106	0.9494857	0	1.1800236e-18	1.89	100
0	-0.32328957	0.9463002	0	1.1800233e-18	1.9	100
0	-0.33273625	0.94302005	0	1.1800234e-18	1.91	100
0	-0.34214965	0.9396454	0	1.1800234e-18	1.92	100
0	-0.35152888	0.93617713	0	1.1800236e-18	1.93	100
0	-0.3608729	0.93261504	0	1.1800234e-18	1.94	100
0	-0.37018085	0.92895985	0	1.1800235e-18	1.95	100
0	-0.37945172	0.92521155	0	1.1800234e-18	1.96	100
0	-0.38868475	0.9213708	0	1.1800234e-18	1.97	100
0	-0.39787886	0.917438	0	1.1800234e-18	1.98	100
0	-0.4070332	0.9134134	0	1.1800233e-18	1.99	100
0	-0.41614687	0.9092976	0	1.1800237e-18	2	100
0	-0.42521885	0.9050905	0	1.1800235e-18	2.01	100
0	-0.4342484	0.90079325	0	1.1800234e-18	2.02	100
0	-0.4432344	0.89640576	0	1.1800235e-18	2.03	100
0	-0.45217618	0.89192873	0	1.1800235e-18	2.04	100
0	-0.46107265	0.8873623	0	1.1800234e-18	2.05	100
0	-0.4699231	0.8827073	0	1.1800234e-18	2.06	100
0	-0.4787265	0.87796396	0	1.1800234e-18	2.07	100
0	-0.48748213	0.873133	0	1.1800235e-18	2.08	100
0	-0.4961889	0.86821455	0	1.1800234e-18	2.09	100
0	-0.50484616	0.8632095	0	1.1800234e-18	2.1	100
0	-0.5134529	0.85811776	0	1.1800233e-18	2.11	100
0	-0.5220082	0.85294044	0	1.1800234e-18	2.12	100
0	-0.5305113	0.8476778	0	1.1800235e-18	2.13	100
0	-0.53896147	0.8423304	0	1.1800235e-18	2.14	100
0	-0.5473577	0.83689874	0	1.1800234e-18	2.15	100
0	-0.55569917	0.83138347	0	1.1800234e-18	2.16	100
0	-0.5639851	0.82578516	0	1.1800238e-18	2.17	100
0	-0.57221454	0.8201041	0	1.1800238e-18	2.18	100
0	-0.58038694	0.8143409	0	1.1800235e-18	2.19	100
0	-0.5885011	0.8084964	0	1.1800235e-18	2.2	100
0	-0.5965565	0.8025711	0	1.1800234e-18	2.21	100
0	-0.60455227	0.7965655	0	1.1800235e-18	2.22	100
0	-0.6124876	0.7904802	0	1.1800239e-18	2.23	100
0	-0.6203617	0.78431594	0	1.1800233e-18	2.24	100
0	-0.62817365	0.77807313	0	1.1800235e-18	2.25	100
0	-0.63592285	0.77175283	0	1.1800237e-18	2.26	100
0	-0.64360845	0.765355	0	1.1800238e-18	2.27	100
0	-0.6512297	0.75888085	0	1.1800236e-18	2.28	100
0	-0.65878576	0.75233066	0	1.1800236e-18	2.29	100
0	-0.6662761	0.7457052	0	1.1800234e-18	2.3	100
0	-0.6736996	0.7390052	0	1.1800234e-18	2.31	100
0	-0.68105596	0.73223144	0	1.1800237e-18	2.32	100
0	-0.688344	0.7253844	0	1.1800236e-18	2.33	100
0	-0.69556326	0.71846473	0	1.1800235e-18	2.34	100
0	-0.7027132	0.71147335	0	1.1800238e-18	2.35	100
0	-0.70979255	0.7044108	0	1.1800235e-18	2.36	100
0	-0.71680105	0.69727784	0	1.1800237e-18	2.37	100
0	-0.72373784	0.690075	0	1.1800235e-18	2.38	100
0	-0.7306023	0.68280315	0	1.1800236e-18	2.39	100
0	-0.7373937	0.67546314	0	1.1800237e-18	2.4	100
0	-0.7441113	0.66805565	0	1.1800237e-18	2.41	100
0	-0.7507547	0.66058123	0	1.1800238e-18	2.42	100
0	-0.7573227	0.65304077	0	1.1800237e-18	2.43	100
0	-0.76381516	0.645435	0	1.1800235e-18	2.44	100
0	-0.7702314	0.6377648	0	1.1800238e-18	2.45	100
0	-0.77657044	0.63003075	0	1.1800238e-18	2.46	100
0	-0.78283167	0.62223357	0	1.1800236e-18	2.47	100
0	-0.78901464	0.6143743	0	1.1800238e-18	2.48	100
0	-0.79511887	0.60645354	0	1.1800235e-18	2.49	100
0	-0.80114377	0.5984722	0	1.1800237e-18	2.5	100
0	-0.8070882	0.5904309	0	1.1800237e-18	2.51	100
0	-0.81295204	0.58233064	0	1.1800237e-18	2.52	100
0	-0.8187346	0.57417214	0	1.1800235e-18	2.53	100
0	-0.82443535	0.56595623	0	1.1800235e-18	2.54	100
0	-0.8300536	0.5576838	0	1.1800238e-18	2.55	100
0	-0.8355889	0.54935545	0	1.1800238e-18	2.56	100
0	-0.84104043	0.5409722	0	1.1800236e-18	2.57	100
0	-0.846408	0.5325349	0	1.1800236e-18	2.58	100
0	-0.851691	0.52404433	0	1.1800237e-18	2.59	100
0	-0.8568889	0.5155014	0	1.1800236e-18	2.6	100
0	-0.8620007	0.5069068	0	1.1800235e-18	2.61	100
0	-0.86702675	0.49826166	0	1.1800235e-18	2.62	100
0	-0.871966	0.48956665	0	1.1800238e-18	2.63	100
0	-0.8768179	0.48082265	0	1.1800235e-18	2.64	100
0	-0.88158214	0.47203052	0	1.1800236e-18	2.65	100
0	-0.8862583	0.46319127	0	1.1800238e-18	2.66	100
0	-0.890846	0.4543057	0	1.1800237e-18	2.67	100
0	-0.89534426	0.44537467	0	1.1800236e-18	2.68	100
0	-0.8997532	0.43639907	0	1.1800237e-18	2.69	100
0	-0.90407217	0.42737988	0	1.1800236e-18	2.7	100
0	-0.90830076	0.41831797	0	1.180024e-18	2.71	100
0	-0.91243845	0.40921423	0	1.1800238e-18	2.72	100
0	-0.9164848	0.40006948	0	1.1800238e-18	2.73	100
0	-0.92043954	0.39088482	0	1.1800238e-18	2.74	100
0	-0.92430246	0.381661	0	1.1800237e-18	2.75	100
0	-0.92807275	0.37239906	0	1.1800238e-18	2.76	100
0	-0.9317503	0.36309984	0	1.1800237e-18	2.77	100
0	-0.9353347	0.3537644	0	1.1800238e-18	2.78	100
0	-0.9388255	0.3443935	0	1.1800237e-18	2.79	100
0	-0.94222236	0.33498818	0	1.1800236e-18	2.8	100
0	-0.9455251	0.3255493	0	1.1800237e-18	2.81	100
0	-0.9487332	0.31607798	0	1.1800236e-18	2.82	100
0	-0.9518466	0.30657506	0	1.1800238e-18	2.83	100
0	-0.95486474	0.2970414	0	1.1800236e-18	2.84	100
0	-0.9577874	0.28747803	0	1.1800241e-18	2.85	100
0	-0.96061414	0.27788594	0	1.1800236e-18	2.86	100
0	-0.9633448	0.26826605	0	1.1800238e-18	2.87	100
0	-0.9659795	0.25861937	0	1.1800237e-18	2.88	100
0	-0.96851707	0.24894677	0	1.1800235e-18	2.89	100
0	-0.97095823	0.23924929	0	1.1800238e-18	2.9	100
0	-0.9733021	0.22952795	0	1.1800237e-18	2.91	100
0	-0.9755486	0.21978365	0	1.1800238e-18	2.92	100
0	-0.97769773	0.21001728	0	1.1800236e-18	2.93	100
0	-0.97974914	0.20023	0	1.1800238e-18	2.94	100
0	-0.98170227	0.19042264	0	1.1800236e-18	2.95	100
0	-0.98355734	0.18059629	0	1.1800238e-18	2.96	100
0	-0.9853141	0.17075182	0	1.1800238e-18	2.97	100
0	-0.9869726	0.16089031	0	1.1800239e-18	2.98	100
0	-0.9885318	0.1510127	0	1.1800234e-18	2.99	100
0	-0.9899925	0.14112	0	1.1800238e-18	3	100
0	-0.9913541	0.13121319	0	1.1800238e-18	3.01	100
0	-0.9926168	0.12129325	0	1.1800236e-18	3.02	100
0	-0.99377996	0.11136118	0	1.1800237e-18	3.03	100
0	-0.99484384	0.10141799	0	1.1800237e-18	3.04	100
0	-0.9958086	0.091464646	0	1.1800239e-18	3.05	100
0	-0.9966732	0.08150216	0	1.1800235e-18	3.06	100
0	-0.9974384	0.07153152	0	1.180024e-18	3.07	100
0	-0.9981039	0.06155371	0	1.1800239e-18	3.08	100
0	-0.99866945	0.05156977	0	1.1800237e-18	3.09	100
0	-0.9991351	0.041580662	0	1.1800235e-18	3.1	100
0	-0.999501	0.0315874	0	1.1800236e-18	3.11	100
0	-0.999767	0.021590974	0	1.1800237e-18	3.12	100
0	-0.9999328	0.011592394	0	1.1800237e-18	3.13	100
0	-0.9999986	0.0015926528	0	1.1800239e-18	3.14	100
0	-0.99996465	-0.008407248	0	1.1800239e-18	3.15	100
0	-0.99983054	-0.018406307	0	1.1800237e-18	3.16	100
0	-0.9995965	-0.028403528	0	1.1800237e-18	3.17	100
0	-0.9992627	-0.03839791	0	1.1800238e-18	3.18	100
0	-0.99882853	-0.048388444	0	1.1800238e-18	3.19	100
0	-0.9982947	-0.058374144	0	1.1800238e-18	3.2	100
0	-0.99766123	-0.068354	0	1.1800241e-18	3.21	100
0	-0.99692774	-0.07832703	0	1.1800237e-18	3.22	100
0	-0.9960945	-0.08829223	0	1.1800238e-18	3.23	100
0	-0.9951619	-0.09824859	0	1.1800236e-18	3.24	100
0	-0.9941299	-0.10819514	0	1.180024e-18	3.25	100
0	-0.99299806	-0.11813086	0	1.1800238e-18	3.26	100
0	-0.9917671	-0.12805477	0	1.1800236e-18	3.27	100
0	-0.99043703	-0.13796589	0	1.1800235e-18	3.28	100
0	-0.98900783	-0.14786316	0	1.1800238e-18	3.29	100
0	-0.9874798	-0.15774569	0	1.1800239e-18	3.3	100
0	-0.98585296	-0.16761243	0	1.1800235e-18	3.31	100
0	-0.9841275	-0.1774624	0	1.1800237e-18	3.32	100
0	-0.9823039	-0.18729468	0	1.1800237e-18	3.33	100
0	-0.98038185	-0.19710822	0	1.1800239e-18	3.34	100
0	-0.9783616	-0.20690198	0	1.1800235e-18	3.35	100
0	-0.97624385	-0.21667507	0	1.1800238e-18	3.36	100
0	-0.97402835	-0.22642656	0	1.1800238e-18	3.37	100
0	-0.97171533	-0.23615527	0	1.1800237e-18	3.38	100
0	-0.96930516	-0.2458605	0	1.1800237e-18	3.39	100
0	-0.96679825	-0.25554115	0	1.1800234e-18	3.4	100
0	-0.9641944	-0.26519614	0	1.1800236e-18	3.41	100
0	-0.96149427	-0.27482468	0	1.1800237e-18	3.42	100
0	-0.95869815	-0.28442568	0	1.1800238e-18	3.43	100
0	-0.9558058	-0.2939983	0	1.1800238e-18	3.44	100
0	-0.95281816	-0.3035415	0	1.1800235e-18	3.45	100
0	-0.9497352	-0.31305438	0	1.1800235e-18	3.46	100
0	-0.9465572	-0.3225359	0	1.1800236e-18	3.47	100
0	-0.9432847	-0.33198524	0	1.1800238e-18	3.48	100
0	-0.9399177	-0.3414013	0	1.1800238e-18	3.49	100
0	-0.9364566	-0.35078323	0	1.1800238e-18	3.5	100
0	-0.93290216	-0.36013013	0	1.1800238e-18	3.51	100
0	-0.9292542	-0.36944094	0	1.1800237e-18	3.52	100
0	-0.9255134	-0.37871483	0	1.1800236e-18	3.53	100
0	-0.9216801	-0.38795093	0	1.1800236e-18	3.54	100
0	-0.9177546	-0.3971482	0	1.1800236e-18	3.55	100
0	-0.9137374	-0.40630576	0	1.1800239e-18	3.56	100
0	-0.9096285	-0.41542262	0	1.1800236e-18	3.57	100
0	-0.9054289	-0.42449796	0	1.1800235e-18	3.58	100
0	-0.9011388	-0.4335309	0	1.1800237e-18	3.59	100
0	-0.8967585	-0.44252047	0	1.1800237e-18	3.6	100
0	-0.8922885	-0.45146573	0	1.1800237e-18	3.61	100
0	-0.8877294	-0.46036598	0	1.1800239e-18	3.62	100
0	-0.88308126	-0.46922007	0	1.180024e-18	3.63	100
0	-0.878345	-0.47802728	0	1.1800236e-18	3.64	100
0	-0.8735209	-0.48678672	0	1.1800236e-18	3.65	100
0	-0.86860937	-0.49549738	0	1.1800236e-18	3.66	100
0	-0.86361104	-0.50415856	0	1.1800236e-18	3.67	100
0	-0.8585266	-0.51276934	0	1.1800238e-18	3.68	100
0	-0.85335594	-0.52132887	0	1.1800236e-18	3.69	100
0	-0.8481001	-0.52983624	0	1.1800239e-18	3.7	100
0	-0.8427594	-0.5382905	0	1.1800235e-18	3.71	100
0	-0.83733445	-0.54669106	0	1.1800234e-18	3.72	100
0	-0.8318257	-0.55503696	0	1.1800235e-18	3.73	100
0	-0.8262338	-0.5633273	0	1.1800237e-18	3.74	100
0	-0.8205594	-0.5715614	0	1.1800237e-18	3.75	100
0	-0.8148027	-0.57973826	0	1.1800236e-18	3.76	100
0	-0.80896485	-0.5878572	0	1.1800237e-18	3.77	100
0	-0.8030459	-0.5959172	0	1.1800236e-18	3.78	100
0	-0.79704666	-0.6039177	0	1.1800237e-18	3.79	100
0	-0.7909677	-0.6118579	0	1.1800238e-18	3.8	100
0	-0.78480965	-0.6197368	0	1.1800234e-18	3.81	100
0	-0.77857333	-0.6275538	0	1.1800238e-18	3.82	100
0	-0.772259	-0.6353081	0	1.1800236e-18	3.83	100
0	-0.7658672	-0.6429988	0	1.1800236e-18	3.84	100
0	-0.75939924	-0.6506251	0	1.1800238e-18	3.85	100
0	-0.7528549	-0.6581865	0	1.1800235e-18	3.86	100
0	-0.74623567	-0.66568196	0	1.1800237e-18	3.87	100
0	-0.73954153	-0.673111	0	1.1800237e-18	3.88	100
0	-0.73277354	-0.6804727	0	1.1800237e-18	3.89	100
0	-0.7259323	-0.68776613	0	1.1800236e-18	3.9	100
0	-0.7190185	-0.694991	0	1.1800236e-18	3.91	100
0	-0.71203274	-0.70214635	0	1.1800237e-18	3.92	100
0	-0.7049758	-0.7092314	0	1.1800234e-18	3.93	100
0	-0.6978483	-0.71624553	0	1.1800235e-18	3.94	100
0	-0.6906511	-0.7231881	0	1.1800236e-18	3.95	100
0	-0.6833848	-0.7300585	0	1.1800237e-18	3.96	100
0	-0.67605025	-0.73685557	0	1.1800237e-18	3.97	100
0	-0.6686479	-0.7435791	0	1.1800235e-18	3.98	100
0	-0.6611788	-0.75022835	0	1.1800236e-18	3.99	100
0	-0.65364367	-0.7568025	0	1.1800234e-18	4	100
0	-0.646043	-0.7633009	0	1.1800235e-18	4.01	100
0	-0.6383779	-0.76972324	0	1.1800238e-18	4.02	100
0	-0.63064885	-0.7760684	0	1.1800236e-18	4.03	100
0	-0.6228568	-0.78233594	0	1.1800234e-18	4.04	100
0	-0.61500245	-0.78852534	0	1.1800235e-18	4.05	100
0	-0.6070865	-0.7946358	0	1.1800236e-18	4.06	100
0	-0.59910995	-0.80066687	0	1.1800235e-18	4.07	100
0	-0.59107345	-0.8066178	0	1.1800234e-18	4.08	100
0	-0.5829778	-0.81248814	0	1.1800236e-18	4.09	100
0	-0.5748239	-0.8182771	0	1.1800235e-18	4.1	100
0	-0.5666126	-0.8239844	0	1.1800238e-18	4.11	100
0	-0.55834454	-0.8296091	0	1.1800235e-18	4.12	100
0	-0.55002064	-0.8351511	0	1.1800238e-18	4.13	100
0	-0.5416418	-0.8406094	0	1.1800234e-18	4.14	100
0	-0.5332087	-0.8459838	0	1.1800237e-18	4.15	100
0	-0.5247224	-0.8512734	0	1.1800234e-18	4.16	100
0	-0.51618356	-0.85647804	0	1.1800235e-18	4.17	100
0	-0.50759315	-0.8615969	0	1.1800235e-18	4.18	100
0	-0.49895194	-0.8666298	0	1.1800236e-18	4.19	100
0	-0.49026084	-0.8715757	0	1.1800234e-18	4.2	100
0	-0.48152065	-0.87643474	0	1.1800234e-18	4.21	100
0	-0.47273237	-0.88120604	0	1.1800234e-18	4.22	100
0	-0.46389687	-0.8858892	0	1.1800235e-18	4.23	100
0	-0.455015	-0.8904838	0	1.1800234e-18	4.24	100
0	-0.44608745	-0.89498943	0	1.1800234e-18	4.25	100
0	-0.43711543	-0.8994053	0	1.1800234e-18	4.26	100
0	-0.42809972	-0.90373147	0	1.1800235e-18	4.27	100
0	-0.41904113	-0.90796727	0	1.1800234e-18	4.28	100
0	-0.40994066	-0.9121123	0	1.1800235e-18	4.29	100
0	-0.40079919	-0.916166	0	1.1800234e-18	4.3	100
0	-0.39161763	-0.92012805	0	1.1800234e-18	4.31	100
0	-0.3823969	-0.92399824	0	1.1800235e-18	4.32	100
0	-0.37313798	-0.92777586	0	1.1800234e-18	4.33	100
0	-0.3638417	-0.93146074	0	1.1800234e-18	4.34	100
0	-0.35450906	-0.9350525	0	1.1800234e-18	4.35	100
0	-0.34514096	-0.9385509	0	1.1800237e-18	4.36	100
0	-0.33573836	-0.9419551	0	1.1800234e-18	4.37	100
0	-0.32630214	-0.9452654	0	1.1800234e-18	4.38	100
0	-0.3168334	-0.9484813	0	1.1800233e-18	4.39	100
0	-0.3073329	-0.95160216	0	1.1800235e-18	4.4	100
0	-0.29780167	-0.9546278	0	1.1800238e-18	4.41	100
0	-0.2882406	-0.9575579	0	1.1800234e-18	4.42	100
0	-0.2786508	-0.9603926	0	1.1800237e-18	4.43	100
0	-0.2690331	-0.96313083	0	1.1800234e-18	4.44	100
0	-0.25938854	-0.96577317	0	1.1800238e-18	4.45	100
0	-0.249718	-0.96831876	0	1.1800234e-18	4.46	100
0	-0.24002247	-0.9707674	0	1.1800236e-18	4.47	100
0	-0.23030297	-0.97311914	0	1.1800236e-18	4.48	100
0	-0.2205604	-0.9753733	0	1.1800235e-18	4.49	100
0	-0.21079582	-0.97753006	0	1.1800234e-18	4.5	100
0	-0.20101012	-0.97958916	0	1.1800234e-18	4.51	100
0	-0.19120434	-0.9815503	0	1.1800234e-18	4.52	100
0	-0.18137947	-0.9834133	0	1.1800236e-18	4.53	100
0	-0.17153643	-0.98517776	0	1.1800236e-18	4.54	100
0	-0.16167621	-0.98684394	0	1.1800234e-18	4.55	100
0	-0.15179986	-0.98841125	0	1.1800233e-18	4.56	100
0	-0.14190833	-0.9898799	0	1.1800236e-18	4.57	100
0	-0.13200258	-0.9912493	0	1.1800232e-18	4.58	100
0	-0.12208366	-0.9925196	0	1.1800234e-18	4.59	100
0	-0.112152524	-0.993691	0	1.1800234e-18	4.6	100
0	-0.10221017	-0.9947627	0	1.1800234e-18	4.61	100
0	-0.0922576	-0.99573517	0	1.1800232e-18	4.62	100
0	-0.0822958	-0.9966079	0	1.1800233e-18	4.63	100
0	-0.072325766	-0.99738103	0	1.1800234e-18	4.64	100
0	-0.06234852	-0.9980544	0	1.1800234e-18	4.65	100
0	-0.05236502	-0.9986279	0	1.1800234e-18	4.66	100
0	-0.042376295	-0.99910164	0	1.1800232e-18	4.67	100
0	-0.032383315	-0.9994756	0	1.1800233e-18	4.68	100
0	-0.022387112	-0.99974954	0	1.1800237e-18	4.69	100
0	-0.012388664	-0.99992335	0	1.1800237e-18	4.7	100
0	-0.0023889781	-0.9999971	0	1.1800233e-18	4.71	100
0	0.007610945	-0.9999711	0	1.1800233e-18	4.72	100
0	0.017610108	-0.9998451	0	1.1800235e-18	4.73	100
0	0.027607514	-0.99961895	0	1.1800238e-18	4.74	100
0	0.037602153	-0.9992928	0	1.1800234e-18	4.75	100
0	0.047593035	-0.9988668	0	1.1800234e-18	4.76	100
0	0.057579156	-0.99834085	0	1.1800233e-18	4.77	100
0	0.06755952	-0.99771523	0	1.1800232e-18	4.78	100
0	0.077533126	-0.9969897	0	1.1800233e-18	4.79	100
0	0.087498985	-0.99616456	0	1.1800235e-18	4.8	100
0	0.0974561	-0.9952399	0	1.1800234e-18	4.81	100
0	0.10740346	-0.99421555	0	1.1800235e-18	4.82	100
0	0.11734007	-0.9930918	0	1.1800234e-18	4.83	100
0	0.12726495	-0.99186873	0	1.1800235e-18	4.84	100
0	0.13717712	-0.9905467	0	1.1800236e-18	4.85	100
0	0.14707556	-0.9891252	0	1.1800234e-18	4.86	100
0	0.15695927	-0.98760515	0	1.1800234e-18	4.87	100
0	0.1668273	-0.9859861	0	1.1800234e-18	4.88	100
0	0.17667869	-0.98426855	0	1.1800235e-18	4.89	100
0	0.18651237	-0.98245263	0	1.1800234e-18	4.9	100
0	0.19632743	-0.98053855	0	1.1800236e-18	4.91	100
0	0.20612285	-0.9785262	0	1.1800235e-18	4.92	100
0	0.2158976	-0.976416	0	1.1800233e-18	4.93	100
0	0.22565083	-0.9742083	0	1.1800235e-18	4.94	100
0	0.23538144	-0.9719029	0	1.1800234e-18	4.95	100
0	0.24508853	-0.9695006	0	1.1800234e-18	4.96	100
0	0.25477117	-0.96700126	0	1.1800234e-18	4.97	100
0	0.26442826	-0.9644053	0	1.1800234e-18	4.98	100
0	0.27405888	-0.9617129	0	1.1800234e-18	4.99	100
0	0.2836622	-0.9589243	0	1.1800234e-18	5	100
0	0.29323712	-0.95603985	0	1.1800235e-18	5.01	100
0	0.3027827	-0.9530598	0	1.1800236e-18	5.02	100
0	0.31229797	-0.94998425	0	1.1800233e-18	5.03	100
0	0.32178202	-0.94681376	0	1.1800233e-18	5.04	100
0	0.33123395	-0.9435486	0	1.1800235e-18	5.05	100
0	0.3406527	-0.94018906	0	1.1800237e-18	5.06	100
0	0.3500374	-0.93673587	0	1.1800234e-18	5.07	100
0	0.35938704	-0.93318856	0	1.1800234e-18	5.08	100
0	0.36870095	-0.92954814	0	1.1800236e-18	5.09	100
0	0.37797773	-0.92581475	0	1.1800234e-18	5.1	100
0	0.3872169	-0.9219888	0	1.1800238e-18	5.11	100
0	0.39641723	-0.9180705	0	1.1800234e-18	5.12	100
0	0.40557793	-0.91406035	0	1.1800234e-18	5.13	100
0	0.4146981	-0.9099592	0	1.1800234e-18	5.14	100
0	0.4237768	-0.9057666	0	1.1800234e-18	5.15	100
0	0.43281314	-0.9014837	0	1.1800235e-18	5.16	100
0	0.4418062	-0.8971105	0	1.1800235e-18	5.17	100
0	0.45075503	-0.89264774	0	1.1800234e-18	5.18	100
0	0.45965892	-0.8880957	0	1.1800237e-18	5.19	100
0	0.4685166	-0.88345456	0	1.1800235e-18	5.2	100
0	0.47732764	-0.87872547	0	1.1800235e-18	5.21	100
0	0.48609093	-0.8739083	0	1.1800235e-18	5.22	100
0	0.49480557	-0.8690039	0	1.1800236e-18	5.23	100
0	0.5034708	-0.8640124	0	1.1800237e-18	5.24	100
0	0.51208544	-0.8589346	0	1.1800235e-18	5.25	100
0	0.5206491	-0.8537708	0	1.1800235e-18	5.26	100
0	0.5291606	-0.84852177	0	1.1800234e-18	5.27	100
0	0.53761923	-0.8431878	0	1.1800235e-18	5.28	100
0	0.54602414	-0.83776945	0	1.1800236e-18	5.29	100
0	0.5543743	-0.8322674	0	1.1800234e-18	5.3	100
0	0.5626692	-0.8266822	0	1.1800238e-18	5.31	100
0	0.57090783	-0.8210143	0	1.1800238e-18	5.32	100
0	0.57908916	-0.81526417	0	1.1800236e-18	5.33	100
0	0.5872127	-0.8094327	0	1.1800235e-18	5.34	100
0	0.5952776	-0.8035204	0	1.1800238e-18	5.35	100
0	0.6032828	-0.7975273	0	1.1800234e-18	5.36	100
0	0.6112279	-0.79145473	0	1.1800238e-18	5.37	100
0	0.6191117	-0.7853031	0	1.1800238e-18	5.38	100
0	0.62693363	-0.77907264	0	1.1800237e-18	5.39	100
0	0.63469285	-0.77276444	0	1.1800235e-18	5.4	100
0	0.6423887	-0.7663791	0	1.1800238e-18	5.41	100
0	0.65002024	-0.759917	0	1.1800238e-18	5.42	100
0	0.6575867	-0.7533789	0	1.1800235e-18	5.43	100
0	0.6650875	-0.7467655	0	1.1800235e-18	5.44	100
0	0.6725219	-0.7400773	0	1.1800236e-18	5.45	100
0	0.67988884	-0.7333152	0	1.1800236e-18	5.46	100
0	0.68718785	-0.7264798	0	1.1800236e-18	5.47	100
0	0.69441825	-0.71957177	0	1.1800237e-18	5.48	100
0	0.701579	-0.71259165	0	1.1800234e-18	5.49	100
0	0.70866984	-0.70554036	0	1.1800236e-18	5.5	100
0	0.7156896	-0.69841844	0	1.1800236e-18	5.51	100
0	0.7226379	-0.69122684	0	1.1800235e-18	5.52	100
0	0.72951394	-0.68396604	0	1.1800237e-18	5.53	100
0	0.736317	-0.6766368	0	1.1800235e-18	5.54	100
0	0.74304646	-0.6692398	0	1.1800235e-18	5.55	100
0	0.7497016	-0.661776	0	1.1800235e-18	5.56	100
0	0.75628173	-0.65424603	0	1.1800236e-18	5.57	100
0	0.7627862	-0.64665073	0	1.1800237e-18	5.58	100
0	0.76921463	-0.63899064	0	1.1800237e-18	5.59	100
0	0.7755659	-0.6312667	0	1.1800237e-18	5.6	100
0	0.78183967	-0.6234795	0	1.1800236e-18	5.61	100
0	0.78803533	-0.61563003	0	1.1800235e-18	5.62	100
0	0.7941521	-0.6077191	0	1.1800238e-18	5.63	100
0	0.80018955	-0.59974736	0	1.1800238e-18	5.64	100
0	0.80614674	-0.5917156	0	1.1800234e-18	5.65	100
0	0.8120235	-0.5836247	0	1.1800237e-18	5.66	100
0	0.8178191	-0.57547534	0	1.1800236e-18	5.67	100
0	0.82353294	-0.56726855	0	1.1800235e-18	5.68	100
0	0.82916427	-0.559005	0	1.1800237e-18	5.69	100
0	0.8347128	-0.5506855	0	1.1800236e-18	5.7	100
0	0.84017783	-0.5423111	0	1.1800238e-18	5.71	100
0	0.84555876	-0.5338822	0	1.1800237e-18	5.72	100
0	0.8508553	-0.52540004	0	1.1800238e-18	5.73	100
0	0.8560668	-0.51686555	0	1.1800239e-18	5.74	100
0	0.8611924	-0.5082791	0	1.1800236e-18	5.75	100
0	0.86623204	-0.4996419	0	1.1800235e-18	5.76	100
0	0.87118506	-0.4909548	0	1.1800239e-18	5.77	100
0	0.87605107	-0.48221844	0	1.1800237e-18	5.78	100
0	0.8808294	-0.4734341	0	1.1800238e-18	5.79	100
0	0.8855195	-0.4646021	0	1.1800235e-18	5.8	100
0	0.8901213	-0.45572397	0	1.1800238e-18	5.81	100
0	0.89463377	-0.44680005	0	1.1800236e-18	5.82	100
0	0.8990569	-0.43783155	0	1.1800237e-18	5.83	100
0	0.90339035	-0.42881924	0	1.1800235e-18	5.84	100
0	0.9076333	-0.419764	0	1.1800238e-18	5.85	100
0	0.91178554	-0.41066685	0	1.1800237e-18	5.86	100
0	0.91584647	-0.40152866	0	1.1800236e-18	5.87	100
0	0.9198159	-0.39235026	0	1.1800235e-18	5.88	100
0	0.92369336	-0.38313267	0	1.1800237e-18	5.89	100
0	0.92747843	-0.3738766	0	1.1800237e-18	5.9	100
0	0.9311708	-0.36458334	0	1.1800237e-18	5.91	100
0	0.9347698	-0.35525355	0	1.1800236e-18	5.92	100
0	0.93827575	-0.3458883	0	1.1800238e-18	5.93	100
0	0.9416876	-0.33648837	0	1.1800237e-18	5.94	100
0	0.9450053	-0.32705483	0	1.1800237e-18	5.95	100
0	0.9482286	-0.31758863	0	1.180024e-18	5.96	100
0	0.9513571	-0.30809063	0	1.1800239e-18	5.97	100
0	0.9543904	-0.29856175	0	1.1800237e-18	5.98	100
0	0.9573283	-0.2890031	0	1.1800238e-18	5.99	100
0	0.9601705	-0.2794155	0	1.1800241e-18	6	100
0	0.9629165	-0.2698	0	1.1800237e-18	6.01	100
0	0.96556634	-0.2601575	0	1.1800238e-18	6.02	100
0	0.96811944	-0.25048903	0	1.1800236e-18	6.03	100
0	0.97057605	-0.24079546	0	1.180024e-18	6.04	100
0	0.9729354	-0.23107785	0	1.1800238e-18	6.05	100
0	0.97519726	-0.22133704	0	1.1800234e-18	6.06	100
0	0.9773621	-0.2115742	0	1.180024e-18	6.07	100
0	0.9794288	-0.20179015	0	1.180024e-18	6.08	100
0	0.9813976	-0.19198592	0	1.1800237e-18	6.09	100
0	0.98326844	-0.1821625	0	1.1800237e-18	6.1	100
0	0.9850409	-0.17232089	0	1.1800238e-18	6.11	100