# t (s)	mx ()	my ()	mz ()	E_total (J)	E_Zeeman (J)	Angle (rad)	Roundness ()	Size (nm)	Cell_size (m)	Volume (m^3)
0	0.99311703	3.0826066e-09	0	6.088519e-19	-3.1223597e-19	0	1	100	1e-09	3.93e-23
0	0.99266446	0.029740557	0	6.0882597e-19	-3.122292e-19	0.024543693	1	100	1e-09	3.93e-23
0	0.99119425	0.06141287	0	6.087475e-19	-3.1220348e-19	0.049087387	1	100	1e-09	3.93e-23
0	0.9888236	0.09175254	0	6.0861985e-19	-3.1216587e-19	0.07363108	1	100	1e-09	3.93e-23
0	0.9855822	0.12147414	0	6.0844604e-19	-3.1211835e-19	0.09817477	1	100	1e-09	3.93e-23
0	0.98152375	0.15054579	0	6.082302e-19	-3.1206423e-19	0.12271846	1	100	1e-09	3.93e-23
0	0.97670364	0.17893483	0	6.079775e-19	-3.1200666e-19	0.14726216	1	100	1e-09	3.93e-23
0	0.97120947	0.20646515	0	6.0769336e-19	-3.1195033e-19	0.17180584	1	100	1e-09	3.93e-23
0	0.96509236	0.23318619	0	6.0738265e-19	-3.1189763e-19	0.19634955	1	100	1e-09	3.93e-23
0	0.95844203	0.25897726	0	6.070515e-19	-3.1185218e-19	0.22089323	1	100	1e-09	3.93e-23
0	0.9512838	0.28397304	0	6.067044e-19	-3.1181395e-19	0.24543692	1	100	1e-09	3.93e-23
0	0.9436652	0.30818772	0	6.0634614e-19	-3.1178407e-19	0.2699806	1	100	1e-09	3.93e-23
0	0.93570507	0.33142942	0	6.0598197e-19	-3.1176623e-19	0.2945243	1	100	1e-09	3.93e-23
0	0.92717737	0.3544549	0	6.0561465e-19	-3.1174868e-19	0.319068	1	100	1e-09	3.93e-23
0	0.918317	0.37669778	0	6.052484e-19	-3.1174067e-19	0.3436117	1	100	1e-09	3.93e-23
0	0.9090661	0.39839837	0	6.0488704e-19	-3.1173814e-19	0.3681554	1	100	1e-09	3.93e-23
0	0.8994343	0.41959473	0	6.045331e-19	-3.1174046e-19	0.3926991	1	100	1e-09	3.93e-23
0	0.88953084	0.4401156	0	6.0418947e-19	-3.1174987e-19	0.41724277	1	100	1e-09	3.93e-23
0	0.87928236	0.460173	0	6.038586e-19	-3.117626e-19	0.44178647	1	100	1e-09	3.93e-23
0	0.8686664	0.47984374	0	6.0354256e-19	-3.1177704e-19	0.46633017	1	100	1e-09	3.93e-23
0	0.85777175	0.49899805	0	6.0324333e-19	-3.1179464e-19	0.49087384	1	100	1e-09	3.93e-23
0	0.8461591	0.51839095	0	6.0296245e-19	-3.1180493e-19	0.5154175	1	100	1e-09	3.93e-23
0	0.835065	0.5360348	0	6.027021e-19	-3.1183324e-19	0.5399612	1	100	1e-09	3.93e-23
0	0.82330185	0.55389196	0	6.0246283e-19	-3.1185348e-19	0.5645049	1	100	1e-09	3.93e-23
0	0.8111271	0.57153744	0	6.02246e-19	-3.118712e-19	0.5890486	1	100	1e-09	3.93e-23
0	0.7987368	0.58869934	0	6.020525e-19	-3.1188886e-19	0.6135923	1	100	1e-09	3.93e-23
0	0.78539723	0.60635525	0	6.018827e-19	-3.1189814e-19	0.638136	1	100	1e-09	3.93e-23
0	0.7723393	0.62288225	0	6.017386e-19	-3.119124e-19	0.6626797	1	100	1e-09	3.93e-23
0	0.75897765	0.63907963	0	6.0161983e-19	-3.119242e-19	0.6872234	1	100	1e-09	3.93e-23
0	0.74529725	0.6549701	0	6.01527e-19	-3.1193335e-19	0.7117671	1	100	1e-09	3.93e-23
0	0.73130715	0.67054623	0	6.0146065e-19	-3.1193953e-19	0.7363108	1	100	1e-09	3.93e-23
0	0.7170216	0.6857956	0	6.014209e-19	-3.1194284e-19	0.7608545	1	100	1e-09	3.93e-23
0	0.70159644	0.701585	0	6.014074e-19	-3.119474e-19	0.7853982	1	100	1e-09	3.93e-23
0	0.99310213	1.888317e-09	0	6.079523e-19	-3.1127794e-19	0	0.99	100	1e-09	3.918e-23
0	0.9926646	0.029277842	0	6.0793107e-19	-3.112723e-19	0.024543693	0.99	100	1e-09	3.918e-23
0	0.991345	0.058764786	0	6.0786784e-19	-3.1125666e-19	0.049087387	0.99	100	1e-09	3.918e-23
0	0.9891425	0.08819753	0	6.0776413e-19	-3.1123043e-19	0.07363108	0.99	100	1e-09	3.918e-23
0	0.98612636	0.116994776	0	6.076221e-19	-3.1119747e-19	0.09817477	0.99	100	1e-09	3.918e-23
0	0.9823188	0.14533816	0	6.0744505e-19	-3.1115885e-19	0.12271846	0.99	100	1e-09	3.918e-23
0	0.9777656	0.17314492	0	6.07236e-19	-3.111169e-19	0.14726216	0.99	100	1e-09	3.918e-23
0	0.9725058	0.2004031	0	6.0699956e-19	-3.1107337e-19	0.17180584	0.99	100	1e-09	3.918e-23
0	0.96662277	0.22691096	0	6.0673905e-19	-3.11032e-19	0.19634955	0.99	100	1e-09	3.918e-23
0	0.9601717	0.25265604	0	6.064592e-19	-3.1099476e-19	0.22089323	0.99	100	1e-09	3.918e-23
0	0.95318717	0.27769363	0	6.0616374e-19	-3.1096237e-19	0.24543692	0.99	100	1e-09	3.918e-23
0	0.94569	0.3020999	0	6.058569e-19	-3.109347e-19	0.2699806	0.99	100	1e-09	3.918e-23
0	0.9378374	0.325532	0	6.055427e-19	-3.109173e-19	0.2945243	0.99	100	1e-09	3.918e-23
0	0.92937505	0.34883806	0	6.052239e-19	-3.1089857e-19	0.319068	0.99	100	1e-09	3.918e-23
0	0.92059296	0.37128702	0	6.0490436e-19	-3.108891e-19	0.3436117	0.99	100	1e-09	3.918e-23
0	0.91133493	0.39336443	0	6.0458703e-19	-3.10882e-19	0.3681554	0.99	100	1e-09	3.918e-23
0	0.9017	0.41488472	0	6.0427477e-19	-3.1087968e-19	0.3926991	0.99	100	1e-09	3.918e-23
0	0.89172393	0.43583214	0	6.0397027e-19	-3.108823e-19	0.41724277	0.99	100	1e-09	3.918e-23
0	0.881354	0.45636532	0	6.0367574e-19	-3.108873e-19	0.44178647	0.99	100	1e-09	3.918e-23
0	0.8707168	0.47628158	0	6.033932e-19	-3.1089705e-19	0.46633017	0.99	100	1e-09	3.918e-23
0	0.85974985	0.4957462	0	6.031249e-19	-3.109089e-19	0.49087384	0.99	100	1e-09	3.918e-23
0	0.84845686	0.51478297	0	6.0287213e-19	-3.109221e-19	0.5154175	0.99	100	1e-09	3.918e-23
0	0.8368041	0.53347045	0	6.026369e-19	-3.1093543e-19	0.5399612	0.99	100	1e-09	3.918e-23
0	0.8248094	0.55179405	0	6.0242003e-19	-3.1094867e-19	0.5645049	0.99	100	1e-09	3.918e-23
0	0.81204975	0.57036924	0	6.022226e-19	-3.1095596e-19	0.5890486	0.99	100	1e-09	3.918e-23
0	0.79944354	0.58787847	0	6.020465e-19	-3.1096953e-19	0.6135923	0.99	100	1e-09	3.918e-23
0	0.78652173	0.6050327	0	6.018922e-19	-3.109819e-19	0.638136	0.99	100	1e-09	3.918e-23
0	0.7733049	0.621816	0	6.017605e-19	-3.1099295e-19	0.6626797	0.99	100	1e-09	3.918e-23
0	0.7597737	0.6382622	0	6.0165194e-19	-3.110022e-19	0.6872234	0.99	100	1e-09	3.918e-23
0	0.7459273	0.6543783	0	6.01567e-19	-3.110092e-19	0.7117671	0.99	100	1e-09	3.918e-23
0	0.73176306	0.6701713	0	6.0150625e-19	-3.1101404e-19	0.7363108	0.99	100	1e-09	3.918e-23
0	0.7172997	0.6856246	0	6.0146975e-19	-3.1101652e-19	0.7608545	0.99	100	1e-09	3.918e-23
0	0.7016547	0.70164466	0	6.0145755e-19	-3.1102105e-19	0.7853982	0.99	100	1e-09	3.918e-23
0	0.99297583	-1.1824496e-09	0	6.050201e-19	-3.0933184e-19	0	0.98	100	1e-09	3.894e-23
0	0.9926309	0.026014425	0	6.050115e-19	-3.0933008e-19	0.024543693	0.98	100	1e-09	3.894e-23
0	0.99157697	0.052511334	0	6.049852e-19	-3.0932667e-19	0.049087387	0.98	100	1e-09	3.894e-23
0	0.989821	0.07886387	0	6.0494205e-19	-3.0932088e-19	0.07363108	0.98	100	1e-09	3.894e-23
0	0.9873658	0.10512224	0	6.0488296e-19	-3.0931287e-19	0.09817477	0.98	100	1e-09	3.894e-23
0	0.98424655	0.1310401	0	6.048094e-19	-3.0930361e-19	0.12271846	0.98	100	1e-09	3.894e-23
0	0.98047215	0.1566953	0	6.0472207e-19	-3.0929322e-19	0.14726216	0.98	100	1e-09	3.894e-23
0	0.97605056	0.18211696	0	6.0462245e-19	-3.09282e-19	0.17180584	0.98	100	1e-09	3.894e-23
0	0.97101	0.20721959	0	6.0451305e-19	-3.0927045e-19	0.19634955	0.98	100	1e-09	3.894e-23
0	0.9653851	0.23192461	0	6.043949e-19	-3.0925936e-19	0.22089323	0.98	100	1e-09	3.894e-23
0	0.95921206	0.25617436	0	6.0426965e-19	-3.0924933e-19	0.24543692	0.98	100	1e-09	3.894e-23
0	0.95249164	0.28004977	0	6.041395e-19	-3.0924013e-19	0.2699806	0.98	100	1e-09	3.894e-23
0	0.9452374	0.30356085	0	6.0400625e-19	-3.0923183e-19	0.2945243	0.98	100	1e-09	3.894e-23
0	0.9375617	0.32643074	0	6.03871e-19	-3.0922612e-19	0.319068	0.98	100	1e-09	3.894e-23
0	0.92925066	0.3493256	0	6.037353e-19	-3.0921932e-19	0.3436117	0.98	100	1e-09	3.894e-23
0	0.92048526	0.3717521	0	6.036006e-19	-3.0921415e-19	0.3681554	0.98	100	1e-09	3.894e-23
0	0.91123456	0.39383256	0	6.034687e-19	-3.092098e-19	0.3926991	0.98	100	1e-09	3.894e-23
0	0.9015494	0.415479	0	6.033402e-19	-3.092068e-19	0.41724277	0.98	100	1e-09	3.894e-23
0	0.89131135	0.4369689	0	6.032161e-19	-3.0920358e-19	0.44178647	0.98	100	1e-09	3.894e-23
0	0.88068014	0.457981	0	6.030976e-19	-3.0920177e-19	0.46633017	0.98	100	1e-09	3.894e-23
0	0.8696016	0.47865006	0	6.0298556e-19	-3.0920047e-19	0.49087384	0.98	100	1e-09	3.894e-23
0	0.85807425	0.4989918	0	6.0288056e-19	-3.0919965e-19	0.5154175	0.98	100	1e-09	3.894e-23
0	0.8461153	0.51898676	0	6.0278306e-19	-3.0919913e-19	0.5399612	0.98	100	1e-09	3.894e-23
0	0.8337454	0.53861266	0	6.026938e-19	-3.0919898e-19	0.5645049	0.98	100	1e-09	3.894e-23
0	0.821003	0.55782485	0	6.026133e-19	-3.0919913e-19	0.5890486	0.98	100	1e-09	3.894e-23
0	0.80714756	0.57767475	0	6.025408e-19	-3.0919652e-19	0.6135923	0.98	100	1e-09	3.894e-23
0	0.7934621	0.59632033	0	6.024781e-19	-3.0919675e-19	0.638136	0.98	100	1e-09	3.894e-23
0	0.7793578	0.6146286	0	6.0242484e-19	-3.09197e-19	0.6626797	0.98	100	1e-09	3.894e-23
0	0.7648448	0.6325891	0	6.023813e-19	-3.091971e-19	0.6872234	0.98	100	1e-09	3.894e-23
0	0.74993885	0.65018475	0	6.0234713e-19	-3.091971e-19	0.7117671	0.98	100	1e-09	3.894e-23
0	0.7345959	0.66746646	0	6.0232304e-19	-3.091969e-19	0.7363108	0.98	100	1e-09	3.894e-23
0	0.71863985	0.6846201	0	6.0230836e-19	-3.0919797e-19	0.7608545	0.98	100	1e-09	3.894e-23
0	0.70183784	0.7018327	0	6.023037e-19	-3.0919763e-19	0.7853982	0.98	100	1e-09	3.894e-23
0	0.9928306	6.2311856e-10	0	6.029259e-19	-3.0865115e-19	0	0.97	100	1e-09	3.886e-23
0	0.99251926	0.024703909	0	6.029229e-19	-3.0864999e-19	0.024543693	0.97	100	1e-09	3.886e-23
0	0.991573	0.04981079	0	6.029133e-19	-3.0864875e-19	0.049087387	0.97	100	1e-09	3.886e-23
0	0.9899999	0.074745774	0	6.0289757e-19	-3.0864665e-19	0.07363108	0.97	100	1e-09	3.886e-23
0	0.98779964	0.09961612	0	6.028767e-19	-3.086439e-19	0.09817477	0.97	100	1e-09	3.886e-23
0	0.98500204	0.124192014	0	6.0285114e-19	-3.086407e-19	0.12271846	0.97	100	1e-09	3.886e-23
0	0.9815967	0.14865707	0	6.028216e-19	-3.0863698e-19	0.14726216	0.97	100	1e-09	3.886e-23
0	0.9775986	0.17294015	0	6.0278967e-19	-3.08633e-19	0.17180584	0.97	100	1e-09	3.886e-23
0	0.97301686	0.19702874	0	6.027558e-19	-3.0862892e-19	0.19634955	0.97	100	1e-09	3.886e-23
0	0.96788275	0.22081535	0	6.027211e-19	-3.086249e-19	0.22089323	0.97	100	1e-09	3.886e-23
0	0.96220547	0.24431814	0	6.026874e-19	-3.08621e-19	0.24543692	0.97	100	1e-09	3.886e-23
0	0.95601654	0.26746562	0	6.0265536e-19	-3.0861752e-19	0.2699806	0.97	100	1e-09	3.886e-23
0	0.94929075	0.29039428	0	6.026255e-19	-3.0861413e-19	0.2945243	0.97	100	1e-09	3.886e-23
0	0.942114	0.31285885	0	6.025988e-19	-3.0861113e-19	0.319068	0.97	100	1e-09	3.886e-23
0	0.9343386	0.33533654	0	6.0257626e-19	-3.086082e-19	0.3436117	0.97	100	1e-09	3.886e-23
0	0.9260232	0.35763574	0	6.025579e-19	-3.0860568e-19	0.3681554	0.97	100	1e-09	3.886e-23
0	0.9170864	0.3799504	0	6.025442e-19	-3.0860377e-19	0.3926991	0.97	100	1e-09	3.886e-23
0	0.9075217	0.40224102	0	6.025354e-19	-3.0860126e-19	0.41724277	0.97	100	1e-09	3.886e-23
0	0.8974452	0.42424154	0	6.0253175e-19	-3.0860043e-19	0.44178647	0.97	100	1e-09	3.886e-23
0	0.88682294	0.4460152	0	6.0253314e-19	-3.0859976e-19	0.46633017	0.97	100	1e-09	3.886e-23
0	0.8756588	0.46755064	0	6.0253893e-19	-3.0859935e-19	0.49087384	0.97	100	1e-09	3.886e-23
0	0.8639564	0.48882627	0	6.025487e-19	-3.0859774e-19	0.5154175	0.97	100	1e-09	3.886e-23
0	0.8517818	0.50974697	0	6.0256194e-19	-3.0859813e-19	0.5399612	0.97	100	1e-09	3.886e-23
0	0.8389502	0.5306137	0	6.0257797e-19	-3.086004e-19	0.5645049	0.97	100	1e-09	3.886e-23
0	0.82598	0.5505763	0	6.025955e-19	-3.0859847e-19	0.5890486	0.97	100	1e-09	3.886e-23
0	0.81223965	0.57065696	0	6.0261426e-19	-3.0859932e-19	0.6135923	0.97	100	1e-09	3.886e-23
0	0.79794544	0.59048396	0	6.02633e-19	-3.0860025e-19	0.638136	0.97	100	1e-09	3.886e-23
0	0.78309983	0.61004037	0	6.026508e-19	-3.0860123e-19	0.6626797	0.97	100	1e-09	3.886e-23
0	0.76769876	0.62931776	0	6.02667e-19	-3.0860253e-19	0.6872234	0.97	100	1e-09	3.886e-23
0	0.7519363	0.6480774	0	6.0268043e-19	-3.0860416e-19	0.7117671	0.97	100	1e-09	3.886e-23
0	0.7357033	0.6664543	0	6.0269046e-19	-3.0860545e-19	0.7363108	0.97	100	1e-09	3.886e-23
0	0.71904594	0.68440443	0	6.026969e-19	-3.0860793e-19	0.7608545	0.97	100	1e-09	3.886e-23
0	0.701945	0.70193344	0	6.0269925e-19	-3.0860803e-19	0.7853982	0.97	100	1e-09	3.886e-23
0	0.99278975	3.0451703e-09	0	6.0198674e-19	-3.0800308e-19	0	0.96	100	1e-09	3.878e-23
0	0.99248993	0.024305334	0	6.019865e-19	-3.0800236e-19	0.024543693	0.96	100	1e-09	3.878e-23
0	0.9915967	0.048590876	0	6.0198695e-19	-3.080021e-19	0.049087387	0.96	100	1e-09	3.878e-23
0	0.9901068	0.07284433	0	6.0198736e-19	-3.08001e-19	0.07363108	0.96	100	1e-09	3.878e-23
0	0.9880245	0.09703964	0	6.019889e-19	-3.0799962e-19	0.09817477	0.96	100	1e-09	3.878e-23
0	0.9853475	0.12117027	0	6.019916e-19	-3.0799693e-19	0.12271846	0.96	100	1e-09	3.878e-23
0	0.9820856	0.14521524	0	6.0199615e-19	-3.0799488e-19	0.14726216	0.96	100	1e-09	3.878e-23
0	0.97824365	0.16913646	0	6.0200297e-19	-3.0799308e-19	0.17180584	0.96	100	1e-09	3.878e-23
0	0.9738209	0.19293097	0	6.020131e-19	-3.079902e-19	0.19634955	0.96	100	1e-09	3.878e-23
0	0.968817	0.21662459	0	6.020274e-19	-3.0798754e-19	0.22089323	0.96	100	1e-09	3.878e-23
0	0.96336967	0.23965617	0	6.0204547e-19	-3.0798465e-19	0.24543692	0.96	100	1e-09	3.878e-23
0	0.9573372	0.2626946	0	6.020689e-19	-3.079823e-19	0.2699806	0.96	100	1e-09	3.878e-23
0	0.95077425	0.2855162	0	6.0209753e-19	-3.0797997e-19	0.2945243	0.96	100	1e-09	3.878e-23
0	0.9436374	0.30826947	0	6.0213217e-19	-3.0797793e-19	0.319068	0.96	100	1e-09	3.878e-23
0	0.93596226	0.3308306	0	6.021722e-19	-3.0797625e-19	0.3436117	0.96	100	1e-09	3.878e-23
0	0.92778677	0.3531026	0	6.0221794e-19	-3.0797467e-19	0.3681554	0.96	100	1e-09	3.878e-23
0	0.91912544	0.3750683	0	6.022692e-19	-3.0797325e-19	0.3926991	0.96	100	1e-09	3.878e-23
0	0.9098688	0.39699787	0	6.023259e-19	-3.0797245e-19	0.41724277	0.96	100	1e-09	3.878e-23
0	0.90012485	0.4186259	0	6.023869e-19	-3.0797175e-19	0.44178647	0.96	100	1e-09	3.878e-23
0	0.88976216	0.44022912	0	6.024521e-19	-3.0797193e-19	0.46633017	0.96	100	1e-09	3.878e-23
0	0.87881994	0.46169522	0	6.025202e-19	-3.0797263e-19	0.49087384	0.96	100	1e-09	3.878e-23
0	0.86729467	0.48300892	0	6.025903e-19	-3.07974e-19	0.5154175	0.96	100	1e-09	3.878e-23
0	0.85512346	0.50425607	0	6.02661e-19	-3.0797625e-19	0.5399612	0.96	100	1e-09	3.878e-23
0	0.8423452	0.5253369	0	6.027313e-19	-3.0797907e-19	0.5645049	0.96	100	1e-09	3.878e-23
0	0.82897973	0.54619724	0	6.0279965e-19	-3.0798222e-19	0.5890486	0.96	100	1e-09	3.878e-23
0	0.815068	0.56676084	0	6.028645e-19	-3.0798542e-19	0.6135923	0.96	100	1e-09	3.878e-23
0	0.80100435	0.58648086	0	6.0292394e-19	-3.079873e-19	0.638136	0.96	100	1e-09	3.878e-23
0	0.78580517	0.60670555	0	6.0297775e-19	-3.0799116e-19	0.6626797	0.96	100	1e-09	3.878e-23
0	0.7699917	0.6266629	0	6.030237e-19	-3.0799463e-19	0.6872234	0.96	100	1e-09	3.878e-23
0	0.7535683	0.6463269	0	6.030611e-19	-3.0799752e-19	0.7117671	0.96	100	1e-09	3.878e-23
0	0.7365899	0.66561747	0	6.030887e-19	-3.079996e-19	0.7363108	0.96	100	1e-09	3.878e-23
0	0.7192883	0.6842869	0	6.031055e-19	-3.080019e-19	0.7608545	0.96	100	1e-09	3.878e-23
0	0.70201886	0.70200706	0	6.0311134e-19	-3.0800512e-19	0.7853982	0.96	100	1e-09	3.878e-23
0	0.99260396	3.4977843e-09	0	5.9811646e-19	-3.055632e-19	0	0.95	100	1e-09	3.848e-23
0	0.992356	0.022083785	0	5.981268e-19	-3.0556168e-19	0.024543693	0.95	100	1e-09	3.848e-23
0	0.9916371	0.04376509	0	5.981574e-19	-3.0555894e-19	0.049087387	0.95	100	1e-09	3.848e-23
0	0.99044245	0.06546352	0	5.9820844e-19	-3.055542e-19	0.07363108	0.95	100	1e-09	3.848e-23
0	0.9887727	0.087140806	0	5.982801e-19	-3.055475e-19	0.09817477	0.95	100	1e-09	3.848e-23
0	0.9866332	0.10874116	0	5.983722e-19	-3.055387e-19	0.12271846	0.95	100	1e-09	3.848e-23
0	0.98399925	0.13046664	0	5.9848477e-19	-3.0552888e-19	0.14726216	0.95	100	1e-09	3.848e-23
0	0.9809184	0.151933	0	5.986176e-19	-3.055164e-19	0.17180584	0.95	100	1e-09	3.848e-23
0	0.97736114	0.17337969	0	5.9877076e-19	-3.0550233e-19	0.19634955	0.95	100	1e-09	3.848e-23
0	0.97333646	0.19474384	0	5.9894396e-19	-3.054866e-19	0.22089323	0.95	100	1e-09	3.848e-23
0	0.9688317	0.21608013	0	5.9913653e-19	-3.054697e-19	0.24543692	0.95	100	1e-09	3.848e-23
0	0.9638347	0.23742005	0	5.993486e-19	-3.054523e-19	0.2699806	0.95	100	1e-09	3.848e-23
0	0.9583362	0.25876957	0	5.9957923e-19	-3.0543497e-19	0.2945243	0.95	100	1e-09	3.848e-23
0	0.9523401	0.28008282	0	5.9982785e-19	-3.0541752e-19	0.319068	0.95	100	1e-09	3.848e-23
0	0.9458286	0.3013954	0	6.0009327e-19	-3.054008e-19	0.3436117	0.95	100	1e-09	3.848e-23
0	0.93870604	0.32295534	0	6.0037436e-19	-3.0538841e-19	0.3681554	0.95	100	1e-09	3.848e-23
0	0.931035	0.34450883	0	6.0066966e-19	-3.053779e-19	0.3926991	0.95	100	1e-09	3.848e-23
0	0.9228856	0.36584485	0	6.0097727e-19	-3.0536698e-19	0.41724277	0.95	100	1e-09	3.848e-23
0	0.91413206	0.3872675	0	6.0129516e-19	-3.0535995e-19	0.44178647	0.95	100	1e-09	3.848e-23
0	0.9047254	0.40883258	0	6.0162087e-19	-3.0535835e-19	0.46633017	0.95	100	1e-09	3.848e-23
0	0.89463437	0.43054056	0	6.0195174e-19	-3.0536262e-19	0.49087384	0.95	100	1e-09	3.848e-23
0	0.8837959	0.45244774	0	6.022843e-19	-3.053742e-19	0.5154175	0.95	100	1e-09	3.848e-23
0	0.87215763	0.47457162	0	6.0261493e-19	-3.0539363e-19	0.5399612	0.95	100	1e-09	3.848e-23
0	0.8596366	0.49696955	0	6.0293944e-19	-3.0542178e-19	0.5645049	0.95	100	1e-09	3.848e-23
0	0.8461914	0.5196083	0	6.03253e-19	-3.0545777e-19	0.5890486	0.95	100	1e-09	3.848e-23
0	0.83240527	0.5414891	0	6.0355e-19	-3.054868e-19	0.6135923	0.95	100	1e-09	3.848e-23
0	0.81700504	0.5645265	0	6.0382567e-19	-3.0553508e-19	0.638136	0.95	100	1e-09	3.848e-23
0	0.8004898	0.5877738	0	6.0407377e-19	-3.055867e-19	0.6626797	0.95	100	1e-09	3.848e-23
0	0.7828094	0.6111786	0	6.042881e-19	-3.0563817e-19	0.6872234	0.95	100	1e-09	3.848e-23
0	0.7639617	0.6346261	0	6.0446265e-19	-3.0568483e-19	0.7117671	0.95	100	1e-09	3.848e-23
0	0.74400926	0.65793765	0	6.0459184e-19	-3.057216e-19	0.7363108	0.95	100	1e-09	3.848e-23
0	0.7229968	0.680981	0	6.0467146e-19	-3.057443e-19	0.7608545	0.95	100	1e-09	3.848e-23
0	0.7023199	0.7023113	0	6.046984e-19	-3.0575413e-19	0.7853982	0.95	100	1e-09	3.848e-23
0	0.9925918	4.5643547e-09	0	5.97194e-19	-3.0460657e-19	0	0.94	100	1e-09	3.836e-23
0	0.9923527	0.021703126	0	5.972058e-19	-3.0460492e-19	0.024543693	0.94	100	1e-09	3.836e-23
0	0.9916548	0.043118253	0	5.972405e-19	-3.0460174e-19	0.049087387	0.94	100	1e-09	3.836e-23
0	0.9905061	0.064357236	0	5.9729864e-19	-3.045958e-19	0.07363108	0.94	100	1e-09	3.836e-23
0	0.9888905	0.085721046	0	5.9737965e-19	-3.045879e-19	0.09817477	0.94	100	1e-09	3.836e-23
0	0.9868174	0.107027404	0	5.9748326e-19	-3.0457757e-19	0.12271846	0.94	100	1e-09	3.836e-23
0	0.9842673	0.1284314	0	5.976093e-19	-3.045658e-19	0.14726216	0.94	100	1e-09	3.836e-23
0	0.98124725	0.14982349	0	5.977572e-19	-3.045523e-19	0.17180584	0.94	100	1e-09	3.836e-23
0	0.9777593	0.17116943	0	5.9792647e-19	-3.045371e-19	0.19634955	0.94	100	1e-09	3.836e-23
0	0.9738034	0.19246066	0	5.9811636e-19	-3.045202e-19	0.22089323	0.94	100	1e-09	3.836e-23
0	0.9693504	0.21382108	0	5.983262e-19	-3.0450305e-19	0.24543692	0.94	100	1e-09	3.836e-23
0	0.96440566	0.23518077	0	5.9855477e-19	-3.044854e-19	0.2699806	0.94	100	1e-09	3.836e-23
0	0.95887583	0.25686195	0	5.988015e-19	-3.0447102e-19	0.2945243	0.94	100	1e-09	3.836e-23
0	0.95292646	0.27818668	0	5.9906503e-19	-3.0445334e-19	0.319068	0.94	100	1e-09	3.836e-23
0	0.94637775	0.29977566	0	5.993436e-19	-3.044396e-19	0.3436117	0.94	100	1e-09	3.836e-23
0	0.9391616	0.3217393	0	5.996358e-19	-3.0443217e-19	0.3681554	0.94	100	1e-09	3.836e-23
0	0.93146086	0.34346595	0	5.9993983e-19	-3.0442384e-19	0.3926991	0.94	100	1e-09	3.836e-23
0	0.9231987	0.36516216	0	6.002531e-19	-3.0441764e-19	0.41724277	0.94	100	1e-09	3.836e-23
0	0.91424835	0.38709718	0	6.0057386e-19	-3.0441766e-19	0.44178647	0.94	100	1e-09	3.836e-23
0	0.90470684	0.4089721	0	6.008991e-19	-3.044202e-19	0.46633017	0.94	100	1e-09	3.836e-23
0	0.894379	0.4311621	0	6.0122594e-19	-3.0443113e-19	0.49087384	0.94	100	1e-09	3.836e-23
0	0.88330775	0.45348284	0	6.015511e-19	-3.044481e-19	0.5154175	0.94	100	1e-09	3.836e-23
0	0.8714176	0.47600207	0	6.0187114e-19	-3.0447213e-19	0.5399612	0.94	100	1e-09	3.836e-23
0	0.8586962	0.4986541	0	6.0218144e-19	-3.0450204e-19	0.5645049	0.94	100	1e-09	3.836e-23
0	0.84505093	0.5215105	0	6.0247834e-19	-3.0453848e-19	0.5890486	0.94	100	1e-09	3.836e-23
0	0.8304268	0.54455835	0	6.0275705e-19	-3.045801e-19	0.6135923	0.94	100	1e-09	3.836e-23
0	0.81551355	0.5667036	0	6.0301203e-19	-3.0461262e-19	0.638136	0.94	100	1e-09	3.836e-23
0	0.7989627	0.58986014	0	6.032396e-19	-3.0465817e-19	0.6626797	0.94	100	1e-09	3.836e-23
0	0.78134865	0.61304575	0	6.034343e-19	-3.04702e-19	0.6872234	0.94	100	1e-09	3.836e-23
0	0.7627103	0.6361205	0	6.0359157e-19	-3.0474027e-19	0.7117671	0.94	100	1e-09	3.836e-23
0	0.7430599	0.65899354	0	6.0370717e-19	-3.047699e-19	0.7363108	0.94	100	1e-09	3.836e-23
0	0.7224891	0.6814992	0	6.0377815e-19	-3.0478765e-19	0.7608545	0.94	100	1e-09	3.836e-23
0	0.7023115	0.7022992	0	6.038019e-19	-3.047962e-19	0.7853982	0.94	100	1e-09	3.836e-23
0	0.99255025	6.282778e-09	0	5.9624585e-19	-3.0395858e-19	0	0.93	100	1e-09	3.828e-23
0	0.99232435	0.021096708	0	5.9625965e-19	-3.0395649e-19	0.024543693	0.93	100	1e-09	3.828e-23
0	0.9916659	0.041906837	0	5.963012e-19	-3.0395168e-19	0.049087387	0.93	100	1e-09	3.828e-23
0	0.9905809	0.06256624	0	5.963706e-19	-3.039431e-19	0.07363108	0.93	100	1e-09	3.828e-23
0	0.98905927	0.08329432	0	5.964667e-19	-3.039313e-19	0.09817477	0.93	100	1e-09	3.828e-23
0	0.9870954	0.10408224	0	5.965902e-19	-3.0391647e-19	0.12271846	0.93	100	1e-09	3.828e-23
0	0.9846848	0.12491642	0	5.967403e-19	-3.038991e-19	0.14726216	0.93	100	1e-09	3.828e-23
0	0.98182434	0.14577504	0	5.969161e-19	-3.038794e-19	0.17180584	0.93	100	1e-09	3.828e-23
0	0.9785254	0.16656034	0	5.9711744e-19	-3.0385673e-19	0.19634955	0.93	100	1e-09	3.828e-23
0	0.9747551	0.1874444	0	5.9734326e-19	-3.038329e-19	0.22089323	0.93	100	1e-09	3.828e-23
0	0.9705267	0.20831011	0	5.9759286e-19	-3.0380736e-19	0.24543692	0.93	100	1e-09	3.828e-23
0	0.9658073	0.22927736	0	5.978648e-19	-3.0378182e-19	0.2699806	0.93	100	1e-09	3.828e-23
0	0.9605816	0.25035065	0	5.981581e-19	-3.037571e-19	0.2945243	0.93	100	1e-09	3.828e-23
0	0.9548363	0.27152413	0	5.984711e-19	-3.0373377e-19	0.319068	0.93	100	1e-09	3.828e-23
0	0.9483423	0.2934889	0	5.9880256e-19	-3.0372255e-19	0.3436117	0.93	100	1e-09	3.828e-23
0	0.9416228	0.31446517	0	5.991494e-19	-3.0369877e-19	0.3681554	0.93	100	1e-09	3.828e-23
0	0.9342133	0.3359252	0	5.9951037e-19	-3.0368398e-19	0.3926991	0.93	100	1e-09	3.828e-23
0	0.9261234	0.35771355	0	5.9988317e-19	-3.0367718e-19	0.41724277	0.93	100	1e-09	3.828e-23
0	0.9174746	0.37943447	0	6.0026424e-19	-3.0367263e-19	0.44178647	0.93	100	1e-09	3.828e-23
0	0.9080755	0.4014979	0	6.0065105e-19	-3.0367775e-19	0.46633017	0.93	100	1e-09	3.828e-23
0	0.898004	0.42363316	0	6.0103977e-19	-3.0368843e-19	0.49087384	0.93	100	1e-09	3.828e-23
0	0.88710606	0.44609103	0	6.014267e-19	-3.0370952e-19	0.5154175	0.93	100	1e-09	3.828e-23
0	0.8753265	0.46886945	0	6.0180755e-19	-3.0374103e-19	0.5399612	0.93	100	1e-09	3.828e-23
0	0.862661	0.4918674	0	6.0217756e-19	-3.0378092e-19	0.5645049	0.93	100	1e-09	3.828e-23
0	0.848948	0.5152553	0	6.025317e-19	-3.0383137e-19	0.5890486	0.93	100	1e-09	3.828e-23
0	0.83434457	0.53865653	0	6.028641e-19	-3.038851e-19	0.6135923	0.93	100	1e-09	3.828e-23
0	0.81918406	0.561511	0	6.0316894e-19	-3.0393296e-19	0.638136	0.93	100	1e-09	3.828e-23
0	0.80230784	0.5854336	0	6.0344113e-19	-3.039964e-19	0.6626797	0.93	100	1e-09	3.828e-23
0	0.784273	0.6094352	0	6.0367403e-19	-3.040574e-19	0.6872234	0.93	100	1e-09	3.828e-23
0	0.7650547	0.6334362	0	6.038625e-19	-3.0411145e-19	0.7117671	0.93	100	1e-09	3.828e-23
0	0.74471915	0.6572553	0	6.040012e-19	-3.041533e-19	0.7363108	0.93	100	1e-09	3.828e-23
0	0.7233838	0.6806851	0	6.040863e-19	-3.0417856e-19	0.7608545	0.93	100	1e-09	3.828e-23
0	0.7023779	0.702365	0	6.0411487e-19	-3.041892e-19	0.7853982	0.93	100	1e-09	3.828e-23
0	0.99245334	4.537867e-09	0	5.930363e-19	-3.0138822e-19	0	0.92	100	1e-09	3.796e-23
0	0.9922554	0.019744217	0	5.9305484e-19	-3.0138452e-19	0.024543693	0.92	100	1e-09	3.796e-23
0	0.9916831	0.039126527	0	5.9311083e-19	-3.0137462e-19	0.049087387	0.92	100	1e-09	3.796e-23
0	0.99072605	0.05863287	0	5.9320394e-19	-3.013584e-19	0.07363108	0.92	100	1e-09	3.796e-23
0	0.9893987	0.0779728	0	5.9333397e-19	-3.013347e-19	0.09817477	0.92	100	1e-09	3.796e-23
0	0.98767143	0.09753235	0	5.935005e-19	-3.0130607e-19	0.12271846	0.92	100	1e-09	3.796e-23
0	0.98557246	0.11694492	0	5.9370356e-19	-3.012702e-19	0.14726216	0.92	100	1e-09	3.796e-23
0	0.9830726	0.13646951	0	5.939422e-19	-3.0122943e-19	0.17180584	0.92	100	1e-09	3.796e-23
0	0.9801803	0.15599038	0	5.94216e-19	-3.0118336e-19	0.19634955	0.92	100	1e-09	3.796e-23
0	0.97688794	0.1755335	0	5.945243e-19	-3.0113254e-19	0.22089323	0.92	100	1e-09	3.796e-23
0	0.973182	0.19513988	0	5.9486637e-19	-3.010781e-19	0.24543692	0.92	100	1e-09	3.796e-23
0	0.9690636	0.21476606	0	5.9524067e-19	-3.0102015e-19	0.2699806	0.92	100	1e-09	3.796e-23
0	0.96449786	0.23453023	0	5.956467e-19	-3.0096126e-19	0.2945243	0.92	100	1e-09	3.796e-23
0	0.9594734	0.2544192	0	5.960828e-19	-3.009024e-19	0.319068	0.92	100	1e-09	3.796e-23
0	0.9539804	0.27441573	0	5.965472e-19	-3.0084435e-19	0.3436117	0.92	100	1e-09	3.796e-23
0	0.9477971	0.2951891	0	5.9703865e-19	-3.0080263e-19	0.3681554	0.92	100	1e-09	3.796e-23
0	0.94130695	0.3153967	0	5.975541e-19	-3.0074995e-19	0.3926991	0.92	100	1e-09	3.796e-23
0	0.9343245	0.3356428	0	5.980914e-19	-3.0069936e-19	0.41724277	0.92	100	1e-09	3.796e-23
0	0.9266459	0.35642603	0	5.986481e-19	-3.0066433e-19	0.44178647	0.92	100	1e-09	3.796e-23
0	0.9184081	0.3772789	0	5.9922023e-19	-3.0063512e-19	0.46633017	0.92	100	1e-09	3.796e-23
0	0.90937304	0.39870304	0	5.998047e-19	-3.0062577e-19	0.49087384	0.92	100	1e-09	3.796e-23
0	0.8996374	0.42035016	0	6.003963e-19	-3.0062884e-19	0.5154175	0.92	100	1e-09	3.796e-23
0	0.8890224	0.44250247	0	6.009902e-19	-3.0065288e-19	0.5399612	0.92	100	1e-09	3.796e-23
0	0.87743187	0.46520838	0	6.0158e-19	-3.0069995e-19	0.5645049	0.92	100	1e-09	3.796e-23
0	0.8647141	0.48858944	0	6.021587e-19	-3.0077357e-19	0.5890486	0.92	100	1e-09	3.796e-23
0	0.85069495	0.5127574	0	6.0271755e-19	-3.008756e-19	0.6135923	0.92	100	1e-09	3.796e-23
0	0.835192	0.53778553	0	6.032469e-19	-3.0100487e-19	0.638136	0.92	100	1e-09	3.796e-23
0	0.81807226	0.5636258	0	6.037343e-19	-3.0115483e-19	0.6626797	0.92	100	1e-09	3.796e-23
0	0.7997588	0.589448	0	6.041659e-19	-3.0130028e-19	0.6872234	0.92	100	1e-09	3.796e-23
0	0.7784871	0.6173827	0	6.0452763e-19	-3.014738e-19	0.7117671	0.92	100	1e-09	3.796e-23
0	0.7548249	0.6461876	0	6.048026e-19	-3.0162758e-19	0.7363108	0.92	100	1e-09	3.796e-23
0	0.7289117	0.67533916	0	6.0497545e-19	-3.0173215e-19	0.7608545	0.92	100	1e-09	3.796e-23
0	0.7026598	0.7026482	0	6.0503454e-19	-3.0176764e-19	0.7853982	0.92	100	1e-09	3.796e-23
0	0.99241245	5.231928e-10	0	5.921036e-19	-3.007407e-19	0	0.91	100	1e-09	3.788e-23
0	0.9922245	0.019248484	0	5.9212375e-19	-3.0073632e-19	0.024543693	0.91	100	1e-09	3.788e-23
0	0.9916775	0.038244504	0	5.92185e-19	-3.0072467e-19	0.049087387	0.91	100	1e-09	3.788e-23
0	0.99073875	0.057751812	0	5.922871e-19	-3.007074e-19	0.07363108	0.91	100	1e-09	3.788e-23
0	0.98951066	0.07604269	0	5.924292e-19	-3.0067612e-19	0.09817477	0.91	100	1e-09	3.788e-23
0	0.9878759	0.09505557	0	5.926114e-19	-3.0064063e-19	0.12271846	0.91	100	1e-09	3.788e-23
0	0.9858753	0.11405863	0	5.928332e-19	-3.005977e-19	0.14726216	0.91	100	1e-09	3.788e-23
0	0.9834928	0.1331598	0	5.9309444e-19	-3.0054863e-19	0.17180584	0.91	100	1e-09	3.788e-23
0	0.98072976	0.15229678	0	5.9339347e-19	-3.0049352e-19	0.19634955	0.91	100	1e-09	3.788e-23
0	0.9775803	0.17147098	0	5.937303e-19	-3.0043288e-19	0.22089323	0.91	100	1e-09	3.788e-23
0	0.97403765	0.19068992	0	5.941038e-19	-3.0036745e-19	0.24543692	0.91	100	1e-09	3.788e-23
0	0.97009575	0.20994778	0	5.9451244e-19	-3.0029769e-19	0.2699806	0.91	100	1e-09	3.788e-23
0	0.9657151	0.22938222	0	5.9495555e-19	-3.0022717e-19	0.2945243	0.91	100	1e-09	3.788e-23
0	0.96088684	0.24896361	0	5.954311e-19	-3.0015647e-19	0.319068	0.91	100	1e-09	3.788e-23
0	0.9556093	0.2686421	0	5.959376e-19	-3.0008567e-19	0.3436117	0.91	100	1e-09	3.788e-23
0	0.9498245	0.28856498	0	5.9647275e-19	-3.0001952e-19	0.3681554	0.91	100	1e-09	3.788e-23
0	0.94345427	0.3088974	0	5.970347e-19	-2.9996358e-19	0.3926991	0.91	100	1e-09	3.788e-23
0	0.9366048	0.3292245	0	5.976203e-19	-2.9990917e-19	0.41724277	0.91	100	1e-09	3.788e-23
0	0.92916405	0.34981927	0	5.982264e-19	-2.9986453e-19	0.44178647	0.91	100	1e-09	3.788e-23
0	0.9210728	0.37074894	0	5.9884966e-19	-2.9983312e-19	0.46633017	0.91	100	1e-09	3.788e-23
0	0.9122869	0.3920227	0	5.99486e-19	-2.998167e-19	0.49087384	0.91	100	1e-09	3.788e-23
0	0.90274227	0.41368306	0	6.0013024e-19	-2.9981805e-19	0.5154175	0.91	100	1e-09	3.788e-23
0	0.8923144	0.43587777	0	6.007773e-19	-2.998428e-19	0.5399612	0.91	100	1e-09	3.788e-23
0	0.88082373	0.4588151	0	6.014201e-19	-2.9989808e-19	0.5645049	0.91	100	1e-09	3.788e-23
0	0.8682593	0.4823306	0	6.0205095e-19	-2.9997917e-19	0.5890486	0.91	100	1e-09	3.788e-23
0	0.8542995	0.5068064	0	6.0266105e-19	-3.0009609e-19	0.6135923	0.91	100	1e-09	3.788e-23
0	0.83882177	0.53219074	0	6.032392e-19	-3.0024402e-19	0.638136	0.91	100	1e-09	3.788e-23
0	0.8214253	0.5588207	0	6.037728e-19	-3.0042538e-19	0.6626797	0.91	100	1e-09	3.788e-23
0	0.80206466	0.586411	0	6.04247e-19	-3.0062163e-19	0.6872234	0.91	100	1e-09	3.788e-23
0	0.78125966	0.6139746	0	6.0464375e-19	-3.0079996e-19	0.7117671	0.91	100	1e-09	3.788e-23
0	0.7569256	0.6438336	0	6.0494686e-19	-3.0098445e-19	0.7363108	0.91	100	1e-09	3.788e-23
0	0.730045	0.6742227	0	6.051377e-19	-3.0111173e-19	0.7608545	0.91	100	1e-09	3.788e-23
0	0.7027137	0.70270115	0	6.05203e-19	-3.0115457e-19	0.7853982	0.91	100	1e-09	3.788e-23
0	0.99249303	4.769396e-09	0	5.9265676e-19	-3.002887e-19	0	0.9	100	1e-09	3.782e-23
0	0.9923044	0.019266706	0	5.926774e-19	-3.0028424e-19	0.024543693	0.9	100	1e-09	3.782e-23
0	0.9917665	0.038016737	0	5.927391e-19	-3.0027184e-19	0.049087387	0.9	100	1e-09	3.782e-23
0	0.9908679	0.05690709	0	5.9284195e-19	-3.0025129e-19	0.07363108	0.9	100	1e-09	3.782e-23
0	0.98961014	0.07579793	0	5.9298546e-19	-3.0022251e-19	0.09817477	0.9	100	1e-09	3.782e-23
0	0.9879905	0.09470516	0	5.9316977e-19	-3.0018589e-19	0.12271846	0.9	100	1e-09	3.782e-23
0	0.9859987	0.11369458	0	5.933938e-19	-3.0014233e-19	0.14726216	0.9	100	1e-09	3.782e-23
0	0.983628	0.13276522	0	5.936574e-19	-3.000924e-19	0.17180584	0.9	100	1e-09	3.782e-23
0	0.9808885	0.15180397	0	5.9395957e-19	-3.000356e-19	0.19634955	0.9	100	1e-09	3.782e-23