# t (s)	mx ()	my ()	mz ()	E_total (J)	E_Zeeman (J)	Angle (rad)	Roundness ()	Size (nm)	Cell_size (m)
0	0.99246687	-2.5859013e-09	0	8.897734e-19	-3.120316e-20	0	1	100	1e-09
0	0.70109123	0.7010774	0	8.820568e-19	-3.1172224e-20	0.7853982	1	100	1e-09
0	0.99245393	-9.460602e-09	0	8.880121e-19	-3.1107484e-20	0	0.99	100	1e-09
0	0.7011523	0.701139	0	8.81274e-19	-3.1079764e-20	0.7853982	0.99	100	1e-09
0	0.99232733	-9.42133e-09	0	8.833287e-19	-3.091298e-20	0	0.98	100	1e-09
0	0.7013591	0.70134425	0	8.804851e-19	-3.0898453e-20	0.7853982	0.98	100	1e-09
0	0.9921759	-8.1158795e-09	0	8.806214e-19	-3.0844764e-20	0	0.97	100	1e-09
0	0.7014617	0.70144874	0	8.803489e-19	-3.083953e-20	0.7853982	0.97	100	1e-09
0	0.9921355	-9.982779e-09	0	8.790992e-19	-3.078001e-20	0	0.96	100	1e-09
0	0.70154023	0.7015291	0	8.802192e-19	-3.077952e-20	0.7853982	0.96	100	1e-09
0	0.99194866	-6.2559318e-09	0	8.730334e-19	-3.053615e-20	0	0.95	100	1e-09
0	0.7018619	0.7018454	0	8.797854e-19	-3.0555302e-20	0.7853982	0.95	100	1e-09
0	0.99193627	-6.644535e-09	0	8.712505e-19	-3.044054e-20	0	0.94	100	1e-09
0	0.7018516	0.7018338	0	8.78027e-19	-3.045954e-20	0.7853982	0.94	100	1e-09
0	0.9918945	-1.1358827e-08	0	8.697192e-19	-3.0375778e-20	0	0.93	100	1e-09
0	0.70192194	0.7019045	0	8.777947e-19	-3.039907e-20	0.7853982	0.93	100	1e-09
0	0.9918005	-5.12669e-09	0	8.641976e-19	-3.0119003e-20	0	0.92	100	1e-09
0	0.70222884	0.70221853	0	8.765403e-19	-3.015829e-20	0.7853982	0.92	100	1e-09
0	0.9917614	-9.179478e-09	0	8.626822e-19	-3.0054338e-20	0	0.91	100	1e-09
0	0.7022861	0.70227224	0	8.761578e-19	-3.009711e-20	0.7853982	0.91	100	1e-09
0	0.99184936	-1.0348466e-08	0	8.6282977e-19	-3.0009395e-20	0	0.9	100	1e-09
0	0.70235986	0.70234734	0	8.764438e-19	-3.005262e-20	0.7853982	0.9	100	1e-09
0	0.9915379	-5.443583e-09	0	8.541107e-19	-2.968268e-20	0	0.89	100	1e-09
0	0.70272166	0.70270634	0	8.746113e-19	-2.9750026e-20	0.7853982	0.89	100	1e-09
0	0.99153763	-5.0095297e-09	0	8.541108e-19	-2.968267e-20	0	0.88	100	1e-09
0	0.7027252	0.702711	0	8.746113e-19	-2.9750197e-20	0.7853982	0.88	100	1e-09
0	0.99165183	2.15159e-09	0	8.5336905e-19	-2.955916e-20	0	0.87	100	1e-09
0	0.7029049	0.7028904	0	8.748889e-19	-2.9630566e-20	0.7853982	0.87	100	1e-09
0	0.9914099	-1.1980631e-08	0	8.462871e-19	-2.929815e-20	0	0.86	100	1e-09
0	0.7031816	0.70316976	0	8.728144e-19	-2.938771e-20	0.7853982	0.86	100	1e-09
0	0.991476	-9.472997e-09	0	8.4569354e-19	-2.9220785e-20	0	0.85	100	1e-09
0	0.7032542	0.7032368	0	8.725102e-19	-2.931106e-20	0.7853982	0.85	100	1e-09
0	0.9914871	-1.2074659e-08	0	8.432133e-19	-2.9062474e-20	0	0.84	100	1e-09
0	0.7033935	0.7033783	0	8.714121e-19	-2.915775e-20	0.7853982	0.84	100	1e-09
0	0.9911806	-6.0387406e-09	0	8.361133e-19	-2.8831464e-20	0	0.83	100	1e-09
0	0.70371425	0.7037038	0	8.703706e-19	-2.8948226e-20	0.7853982	0.83	100	1e-09
0	0.99133074	-1.3855862e-08	0	8.3698617e-19	-2.8772385e-20	0	0.82	100	1e-09
0	0.70384574	0.7038307	0	8.709415e-19	-2.8889842e-20	0.7853982	0.82	100	1e-09
0	0.99142563	-9.627618e-09	0	8.3632763e-19	-2.8664102e-20	0	0.81	100	1e-09
0	0.70398194	0.70396936	0	8.707524e-19	-2.878398e-20	0.7853982	0.81	100	1e-09
0	0.9914324	4.863862e-08	0	8.328618e-19	-2.8442214e-20	0	0.8	100	1e-09
0	0.7042774	0.7042672	0	8.699762e-19	-2.8573003e-20	0.7853982	0.8	100	1e-09
0	0.99117965	-8.326014e-09	0	8.2736626e-19	-2.8276374e-20	0	0.79	100	1e-09
0	0.7044453	0.7044335	0	8.684221e-19	-2.8420385e-20	0.7853982	0.79	100	1e-09
0	0.9913399	-4.956548e-09	0	8.265743e-19	-2.812233e-20	0	0.78	100	1e-09
0	0.70457107	0.7045557	0	8.6707936e-19	-2.826596e-20	0.7853982	0.78	100	1e-09
0	0.9913769	-8.478684e-09	0	8.2374874e-19	-2.7933036e-20	0	0.77	100	1e-09
0	0.7047616	0.7047475	0	8.655987e-19	-2.808227e-20	0.7853982	0.77	100	1e-09
0	0.99122405	-1.1052404e-08	0	8.1922226e-19	-2.7754275e-20	0	0.76	100	1e-09
0	0.70497507	0.70496374	0	8.643782e-19	-2.7915362e-20	0.7853982	0.76	100	1e-09
0	0.9912902	-4.271238e-09	0	8.1791273e-19	-2.7597524e-20	0	0.75	100	1e-09
0	0.70522076	0.7052096	0	8.6415243e-19	-2.7765526e-20	0.7853982	0.75	100	1e-09
0	0.99140906	-7.980917e-09	0	8.164732e-19	-2.7410475e-20	0	0.74	100	1e-09
0	0.70545465	0.7054433	0	8.634521e-19	-2.7583184e-20	0.7853982	0.74	100	1e-09
0	0.99131024	-1.0054582e-08	0	8.1083966e-19	-2.7138106e-20	0	0.73	100	1e-09
0	0.7056846	0.7056746	0	8.6067564e-19	-2.7320748e-20	0.7853982	0.73	100	1e-09
0	0.9912904	-9.471632e-09	0	8.091224e-19	-2.7042405e-20	0	0.72	100	1e-09
0	0.7057879	0.70577675	0	8.599192e-19	-2.722891e-20	0.7853982	0.72	100	1e-09
0	0.9913327	-4.842658e-09	0	8.080591e-19	-2.6916667e-20	0	0.71	100	1e-09
0	0.7059681	0.705958	0	8.5953056e-19	-2.7108085e-20	0.7853982	0.71	100	1e-09
0	0.99147004	-9.686198e-09	0	8.0651624e-19	-2.6698304e-20	0	0.7	100	1e-09
0	0.7062084	0.70620275	0	8.5850294e-19	-2.6893676e-20	0.7853982	0.7	100	1e-09
0	0.9914568	-1.3675032e-08	0	8.0260704e-19	-2.646e-20	0	0.69	100	1e-09
0	0.706373	0.7063652	0	8.557515e-19	-2.6660156e-20	0.7853982	0.69	100	1e-09
0	0.9915344	-1.0177061e-08	0	8.009973e-19	-2.6271696e-20	0	0.68	100	1e-09
0	0.70653695	0.70652896	0	8.54293e-19	-2.6474497e-20	0.7853982	0.68	100	1e-09
0	0.9915027	-9.286067e-09	0	7.977116e-19	-2.6112218e-20	0	0.67	100	1e-09
0	0.7066089	0.70660186	0	8.520596e-19	-2.6317325e-20	0.7853982	0.67	100	1e-09
0	0.9914572	-1.0791443e-08	0	7.928612e-19	-2.582548e-20	0	0.66	100	1e-09
0	0.70679444	0.7067882	0	8.4920316e-19	-2.6036377e-20	0.7853982	0.66	100	1e-09
0	0.99161285	-1.2514395e-08	0	7.9246534e-19	-2.5655005e-20	0	0.65	100	1e-09
0	0.7068743	0.7068683	0	8.476912e-19	-2.586338e-20	0.7853982	0.65	100	1e-09
0	0.99170196	-1.32714915e-08	0	7.918981e-19	-2.5498642e-20	0	0.64	100	1e-09
0	0.7069183	0.7069128	0	8.4624304e-19	-2.5705045e-20	0.7853982	0.64	100	1e-09
0	0.9919346	-6.9928316e-09	0	7.9054923e-19	-2.5218947e-20	0	0.63	100	1e-09
0	0.70692533	0.7069222	0	8.4275105e-19	-2.541742e-20	0.7853982	0.63	100	1e-09
0	0.9919588	-9.112051e-09	0	7.8691413e-19	-2.498149e-20	0	0.62	100	1e-09
0	0.70690924	0.70690376	0	8.394432e-19	-2.5176867e-20	0.7853982	0.62	100	1e-09
0	0.9920266	-1.2224206e-08	0	7.845306e-19	-2.4760988e-20	0	0.61	100	1e-09
0	0.70681965	0.7068121	0	8.359672e-19	-2.494973e-20	0.7853982	0.61	100	1e-09
0	0.99223787	-1.0105994e-08	0	7.8382477e-19	-2.4543995e-20	0	0.6	100	1e-09
0	0.70669377	0.70668256	0	8.326687e-19	-2.4721352e-20	0.7853982	0.6	100	1e-09
0	0.992355	-8.269218e-09	0	7.814071e-19	-2.4276972e-20	0	0.59	100	1e-09
0	0.7064259	0.7064136	0	8.285277e-19	-2.4440232e-20	0.7853982	0.59	100	1e-09
0	0.992272	-1.0367947e-08	0	7.7743387e-19	-2.4084428e-20	0	0.58	100	1e-09
0	0.7061903	0.70617425	0	8.249195e-19	-2.4240265e-20	0.7853982	0.58	100	1e-09
0	0.9923419	-3.931286e-08	0	7.7470365e-19	-2.3832085e-20	0	0.57	100	1e-09
0	0.70576036	0.7057425	0	8.2017744e-19	-2.3969967e-20	0.7853982	0.57	100	1e-09
0	0.9927335	-1.0101846e-08	0	7.7783645e-19	-2.3634998e-20	0	0.56	100	1e-09
0	0.7051037	0.7050824	0	8.1668074e-19	-2.37402e-20	0.7853982	0.56	100	1e-09
0	0.99272674	-1.2387224e-08	0	7.7322254e-19	-2.3348935e-20	0	0.55	100	1e-09
0	0.70443624	0.70441407	0	8.1057403e-19	-2.34308e-20	0.7853982	0.55	100	1e-09
0	0.99275905	-6.0632046e-09	0	7.6920807e-19	-2.3095545e-20	0	0.54	100	1e-09
0	0.7038273	0.7037959	0	8.0486395e-19	-2.3155587e-20	0.7853982	0.54	100	1e-09
0	0.9932072	-8.023503e-09	0	7.7181803e-19	-2.2835823e-20	0	0.53	100	1e-09
0	0.70270663	0.7026804	0	7.9886596e-19	-2.2848498e-20	0.7853982	0.53	100	1e-09
0	0.99322057	-1.4833096e-08	0	7.689816e-19	-2.2613648e-20	0	0.52	100	1e-09
0	0.7017356	0.7017063	0	7.929525e-19	-2.259458e-20	0.7853982	0.52	100	1e-09
0	0.99329597	-9.827013e-09	0	7.648514e-19	-2.229751e-20	0	0.51	100	1e-09
0	0.70046324	0.70042074	0	7.8475803e-19	-2.2236418e-20	0.7853982	0.51	100	1e-09
0	0.99362046	-1.2847682e-08	0	7.649215e-19	-2.203453e-20	0	0.5	100	1e-09
0	0.6989236	0.6988831	0	7.7747316e-19	-2.1918727e-20	0.7853982	0.5	100	1e-09
0	0.9937545	-8.538715e-09	0	7.6183913e-19	-2.17195e-20	0	0.49	100	1e-09
0	0.6974877	0.6974471	0	7.6849215e-19	-2.1558055e-20	0.7853982	0.49	100	1e-09
0	0.9940913	-1.358098e-08	0	7.6188235e-19	-2.140875e-20	0	0.48	100	1e-09
0	0.69542634	0.6953915	0	7.590718e-19	-2.1179725e-20	0.7853982	0.48	100	1e-09
0	0.9943403	-1.048735e-08	0	7.621529e-19	-2.117547e-20	0	0.47	100	1e-09
0	0.69365233	0.6936162	0	7.517255e-19	-2.0890244e-20	0.7853982	0.47	100	1e-09
0	0.9943414	-9.858806e-09	0	7.56178e-19	-2.0857307e-20	0	0.46	100	1e-09
0	0.69207215	0.6920408	0	7.415644e-19	-2.0529539e-20	0.7853982	0.46	100	1e-09
0	0.9946738	-7.931076e-09	0	7.5471173e-19	-2.0482323e-20	0	0.45	100	1e-09
0	0.6893648	0.6893339	0	7.287538e-19	-2.0074879e-20	0.7853982	0.45	100	1e-09
0	0.99490786	-1.2623454e-08	0	7.5422235e-19	-2.021653e-20	0	0.44	100	1e-09
0	0.687132	0.6871024	0	7.1922057e-19	-1.974556e-20	0.7853982	0.44	100	1e-09
0	0.99514747	-1.3900027e-08	0	7.544527e-19	-1.996664e-20	0	0.43	100	1e-09
0	0.6846694	0.6846407	0	7.0958453e-19	-1.9426934e-20	0.7853982	0.43	100	1e-09
0	0.9954645	-1.0177433e-08	0	7.5461583e-19	-1.9670378e-20	0	0.42	100	1e-09
0	0.68177533	0.681748	0	6.97511e-19	-1.9051737e-20	0.7853982	0.42	100	1e-09
0	0.99555796	-1.3607444e-08	0	7.490559e-19	-1.9321792e-20	0	0.41	100	1e-09
0	0.6800782	0.68005735	0	6.860445e-19	-1.8665859e-20	0.7853982	0.41	100	1e-09
0	0.99597	-1.1511116e-08	0	7.496647e-19	-1.8947334e-20	0	0.4	100	1e-09
0	0.6761421	0.6761218	0	6.703913e-19	-1.819065e-20	0.7853982	0.4	100	1e-09
0	0.9961093	-8.4839655e-09	0	7.463582e-19	-1.8615293e-20	0	0.39	100	1e-09
0	0.67349464	0.67347413	0	6.564196e-19	-1.7799402e-20	0.7853982	0.39	100	1e-09
0	0.9964113	-1.1875578e-08	0	7.472634e-19	-1.833397e-20	0	0.38	100	1e-09
0	0.6704844	0.6704665	0	6.450598e-19	-1.7446798e-20	0.7853982	0.38	100	1e-09
0	0.9967221	-1.0434124e-08	0	7.4486823e-19	-1.7940998e-20	0	0.37	100	1e-09
0	0.6674601	0.6674445	0	6.2922523e-19	-1.6990561e-20	0.7853982	0.37	100	1e-09
0	0.9968422	-1.0757072e-08	0	7.406656e-19	-1.7592272e-20	0	0.36	100	1e-09
0	0.6652697	0.6652552	0	6.1619584e-19	-1.6603644e-20	0.7853982	0.36	100	1e-09
0	0.9972224	-1.4064095e-08	0	7.3814517e-19	-1.718414e-20	0	0.35	100	1e-09
0	0.6622486	0.66223687	0	6.0129e-19	-1.6138677e-20	0.7853982	0.35	100	1e-09
0	0.9973297	-1.6385622e-08	0	7.3341235e-19	-1.6818968e-20	0	0.34	100	1e-09
0	0.65989673	0.6598856	0	5.8575787e-19	-1.5737942e-20	0.7853982	0.34	100	1e-09
0	0.9976364	-1.900761e-08	0	7.353153e-19	-1.6536822e-20	0	0.33	100	1e-09
0	0.65627724	0.6562681	0	5.7376696e-19	-1.538435e-20	0.7853982	0.33	100	1e-09
0	0.9978871	-1.8176943e-08	0	7.3236064e-19	-1.6109888e-20	0	0.32	100	1e-09
0	0.6527698	0.65276206	0	5.5483145e-19	-1.490334e-20	0.7853982	0.32	100	1e-09
0	0.9979928	-1.9457804e-08	0	7.293831e-19	-1.5824177e-20	0	0.31	100	1e-09
0	0.65082383	0.6508167	0	5.4394616e-19	-1.4593843e-20	0.7853982	0.31	100	1e-09
0	0.9983655	-1.3044325e-08	0	7.2954233e-19	-1.5366841e-20	0	0.3	100	1e-09
0	0.64589983	0.64589447	0	5.226802e-19	-1.4059615e-20	0.7853982	0.3	100	1e-09
0	0.99842364	-1.3108166e-08	0	7.2328797e-19	-1.4952393e-20	0	0.29	100	1e-09
0	0.64381844	0.64381313	0	5.0762306e-19	-1.3635542e-20	0.7853982	0.29	100	1e-09
0	0.9987822	-1.48292845e-08	0	7.206872e-19	-1.4494327e-20	0	0.28	100	1e-09
0	0.63953954	0.6395361	0	4.8756057e-19	-1.3125278e-20	0.7853982	0.28	100	1e-09
0	0.998791	-1.1119044e-08	0	7.1501513e-19	-1.414288e-20	0	0.27	100	1e-09
0	0.63799024	0.6379864	0	4.749127e-19	-1.2775884e-20	0.7853982	0.27	100	1e-09
0	0.9989632	-1.0550258e-08	0	7.0950947e-19	-1.363385e-20	0	0.26	100	1e-09
0	0.63445014	0.6344472	0	4.543354e-19	-1.2245614e-20	0.7853982	0.26	100	1e-09
0	0.9991118	-1.0913377e-08	0	7.078289e-19	-1.3300177e-20	0	0.25	100	1e-09
0	0.6314243	0.63142174	0	4.398045e-19	-1.1887176e-20	0.7853982	0.25	100	1e-09
0	0.9992144	-1.1366792e-08	0	6.99877e-19	-1.2789945e-20	0	0.24	100	1e-09
0	0.62864256	0.62864053	0	4.2084646e-19	-1.1379629e-20	0.7853982	0.24	100	1e-09
0	0.99938637	-1.0988405e-08	0	6.9832583e-19	-1.239239e-20	0	0.23	100	1e-09
0	0.6244412	0.62443966	0	4.0333963e-19	-1.0950342e-20	0.7853982	0.23	100	1e-09
0	0.999407	-1.3122048e-08	0	6.889712e-19	-1.1944912e-20	0	0.22	100	1e-09
0	0.62314165	0.6231399	0	3.8882594e-19	-1.0532751e-20	0.7853982	0.22	100	1e-09
0	0.99959207	-7.630258e-09	0	6.8325015e-19	-1.14193414e-20	0	0.21	100	1e-09
0	0.6183893	0.6183884	0	3.6879545e-19	-9.990675e-21	0.7853982	0.21	100	1e-09
0	0.9995813	-7.656338e-09	0	6.7237857e-19	-1.10033916e-20	0	0.2	100	1e-09
0	0.61779386	0.61779255	0	3.563121e-19	-9.617596e-21	0.7853982	0.2	100	1e-09
0	0.9997443	-6.521397e-09	0	6.6654555e-19	-1.0445331e-20	0	0.19	100	1e-09
0	0.6118585	0.61185807	0	3.323651e-19	-9.0406366e-21	0.7853982	0.19	100	1e-09
0	0.999728	-6.804281e-09	0	6.571645e-19	-1.0061262e-20	0	0.18	100	1e-09
0	0.6112221	0.6112211	0	3.206784e-19	-8.699299e-21	0.7853982	0.18	100	1e-09
0	0.9998497	-6.023023e-09	0	6.517273e-19	-9.5025725e-21	0	0.17	100	1e-09
0	0.60460275	0.6046025	0	2.9790039e-19	-8.126273e-21	0.7853982	0.17	100	1e-09
0	0.999829	-5.352834e-09	0	6.356606e-19	-9.022456e-21	0	0.16	100	1e-09
0	0.60568255	0.60568196	0	2.8438806e-19	-7.7296345e-21	0.7853982	0.16	100	1e-09
0	0.9999159	-3.147835e-09	0	6.2903704e-19	-8.4632896e-21	0	0.15	100	1e-09
0	0.59744245	0.5974424	0	2.6104853e-19	-7.1513286e-21	0.7853982	0.15	100	1e-09
0	0.99990445	-2.4546343e-09	0	6.158266e-19	-8.079229e-21	0	0.14	100	1e-09
0	0.5992814	0.5992811	0	2.5220135e-19	-6.847893e-21	0.7853982	0.14	100	1e-09
0	0.999956	-1.7680577e-09	0	6.0356443e-19	-7.423674e-21	0	0.13	100	1e-09
0	0.5898197	0.5898196	0	2.2608986e-19	-6.1925887e-21	0.7853982	0.13	100	1e-09
0	0.9999504	-1.762443e-09	0	5.8452185e-19	-7.007653e-21	0	0.12	100	1e-09
0	0.5929962	0.592996	0	2.1764425e-19	-5.8770706e-21	0.7853982	0.12	100	1e-09
0	0.99997884	-1.594626e-09	0	5.706952e-19	-6.3518662e-21	0	0.11	100	1e-09
0	0.5817693	0.58176917	0	1.9143867e-19	-5.226082e-21	0.7853982	0.11	100	1e-09
0	0.9939719	-2.2804207e-08	0	9.16181e-19	-3.1425415e-20	0	1	100	2e-09
0	0.70137703	0.70136297	0	9.00731e-19	-3.1359496e-20	0.7853982	1	100	2e-09
0	0.9940068	4.3582093e-09	0	9.122863e-19	-3.1172056e-20	0	0.99	100	2e-09
0	0.701579	0.70156825	0	8.991818e-19	-3.111461e-20	0.7853982	0.99	100	2e-09
0	0.9935949	-2.3585219e-08	0	9.046964e-19	-3.0968366e-20	0	0.98	100	2e-09
0	0.7019136	0.70189846	0	8.986326e-19	-3.0938755e-20	0.7853982	0.98	100	2e-09
0	0.99352074	-2.9285774e-08	0	9.018675e-19	-3.0838886e-20	0	0.97	100	2e-09
0	0.7020248	0.7020085	0	8.978883e-19	-3.081656e-20	0.7853982	0.97	100	2e-09
0	0.9934235	-2.3581936e-08	0	8.98655e-19	-3.0708715e-20	0	0.96	100	2e-09
0	0.7020356	0.70202404	0	8.957257e-19	-3.069005e-20	0.7853982	0.96	100	2e-09
0	0.9934236	-2.2401876e-08	0	8.986549e-19	-3.0708715e-20	0	0.95	100	2e-09
0	0.7020352	0.7020242	0	8.957256e-19	-3.069005e-20	0.7853982	0.95	100	2e-09
0	0.9933709	-3.0257336e-08	0	8.960312e-19	-3.057993e-20	0	0.94	100	2e-09
0	0.7021961	0.7021779	0	8.954687e-19	-3.0569813e-20	0.7853982	0.94	100	2e-09
0	0.99337125	-2.2187162e-08	0	8.960314e-19	-3.057994e-20	0	0.93	100	2e-09
0	0.7021956	0.7021784	0	8.954688e-19	-3.0569813e-20	0.7853982	0.93	100	2e-09
0	0.9929597	-2.2136067e-08	0	8.853641e-19	-3.0185976e-20	0	0.92	100	2e-09
0	0.70284206	0.702824	0	8.951275e-19	-3.021626e-20	0.7853982	0.92	100	2e-09
0	0.9929597	-2.257722e-08	0	8.853642e-19	-3.0185976e-20	0	0.91	100	2e-09
0	0.70283973	0.7028262	0	8.951276e-19	-3.021626e-20	0.7853982	0.91	100	2e-09
0	0.9930914	-1.8683794e-08	0	8.822767e-19	-2.9935747e-20	0	0.9	100	2e-09
0	0.7029148	0.7029052	0	8.918347e-19	-2.9965086e-20	0.7853982	0.9	100	2e-09
0	0.9930912	-1.8281407e-08	0	8.822767e-19	-2.9935744e-20	0	0.89	100	2e-09
0	0.702919	0.70290303	0	8.918345e-19	-2.996513e-20	0.7853982	0.89	100	2e-09
0	0.9930912	-1.913858e-08	0	8.822766e-19	-2.9935744e-20	0	0.88	100	2e-09
0	0.70291525	0.7029067	0	8.918344e-19	-2.996513e-20	0.7853982	0.88	100	2e-09
0	0.99335164	-2.9704974e-08	0	8.774806e-19	-2.9498573e-20	0	0.87	100	2e-09
0	0.7031666	0.7031512	0	8.880041e-19	-2.9530206e-20	0.7853982	0.87	100	2e-09
0	0.99264294	-2.236191e-08	0	8.6364563e-19	-2.9096356e-20	0	0.86	100	2e-09
0	0.7037875	0.70377046	0	8.858898e-19	-2.9174056e-20	0.7853982	0.86	100	2e-09
0	0.99264294	-2.0495197e-08	0	8.6364547e-19	-2.9096356e-20	0	0.85	100	2e-09
0	0.70378786	0.70377	0	8.858897e-19	-2.917405e-20	0.7853982	0.85	100	2e-09
0	0.99264294	-2.9037743e-08	0	8.636456e-19	-2.9096356e-20	0	0.84	100	2e-09
0	0.70378166	0.70377445	0	8.858895e-19	-2.9174014e-20	0.7853982	0.84	100	2e-09
0	0.99264294	-2.3659254e-08	0	8.636456e-19	-2.9096356e-20	0	0.83	100	2e-09
0	0.70378685	0.703771	0	8.858897e-19	-2.9174056e-20	0.7853982	0.83	100	2e-09
0	0.9929962	-2.812225e-08	0	8.639759e-19	-2.8852496e-20	0	0.82	100	2e-09
0	0.7041305	0.70411927	0	8.864904e-19	-2.8933466e-20	0.7853982	0.82	100	2e-09
0	0.99301594	-2.2331138e-08	0	8.624388e-19	-2.8725963e-20	0	0.81	100	2e-09
0	0.7043569	0.7043454	0	8.866181e-19	-2.881527e-20	0.7853982	0.81	100	2e-09
0	0.99287117	-1.9622219e-08	0	8.5668165e-19	-2.8467605e-20	0	0.8	100	2e-09
0	0.7046942	0.7046812	0	8.854111e-19	-2.8573907e-20	0.7853982	0.8	100	2e-09
0	0.992595	-2.0756982e-08	0	8.5093755e-19	-2.82691e-20	0	0.79	100	2e-09
0	0.7049708	0.7049579	0	8.839196e-19	-2.8393708e-20	0.7853982	0.79	100	2e-09
0	0.99258476	-1.7608935e-08	0	8.485145e-19	-2.8141764e-20	0	0.78	100	2e-09
0	0.70501196	0.705002	0	8.823414e-19	-2.8267805e-20	0.7853982	0.78	100	2e-09
0	0.9926692	-2.0246235e-08	0	8.4801957e-19	-2.8017102e-20	0	0.77	100	2e-09
0	0.7052308	0.7052199	0	8.824549e-19	-2.814891e-20	0.7853982	0.77	100	2e-09
0	0.9926866	-1.9901451e-08	0	8.4537755e-19	-2.7890524e-20	0	0.76	100	2e-09
0	0.705175	0.7051658	0	8.794777e-19	-2.8019063e-20	0.7853982	0.76	100	2e-09
0	0.99269533	-1.4771159e-08	0	8.437884e-19	-2.7763703e-20	0	0.75	100	2e-09
0	0.70537394	0.70536435	0	8.79214e-19	-2.789927e-20	0.7853982	0.75	100	2e-09
0	0.99263847	-2.3668068e-08	0	8.389576e-19	-2.7508e-20	0	0.74	100	2e-09
0	0.70562905	0.70561785	0	8.774587e-19	-2.7653866e-20	0.7853982	0.74	100	2e-09
0	0.99236065	-2.0428025e-08	0	8.301402e-19	-2.7119236e-20	0	0.73	100	2e-09
0	0.70606124	0.7060549	0	8.741169e-19	-2.728747e-20	0.7853982	0.73	100	2e-09
0	0.99236065	-2.6613579e-08	0	8.3014016e-19	-2.7119236e-20	0	0.72	100	2e-09
0	0.706061	0.7060551	0	8.74117e-19	-2.7287473e-20	0.7853982	0.72	100	2e-09
0	0.99274266	-1.715259e-08	0	8.3286427e-19	-2.6939066e-20	0	0.71	100	2e-09
0	0.7063097	0.70630515	0	8.743909e-19	-2.7105326e-20	0.7853982	0.71	100	2e-09
0	0.99286705	-2.2695444e-08	0	8.2942744e-19	-2.668827e-20	0	0.7	100	2e-09
0	0.70637673	0.70637125	0	8.701762e-19	-2.6852142e-20	0.7853982	0.7	100	2e-09
0	0.9928672	-2.1556792e-08	0	8.294275e-19	-2.668827e-20	0	0.69	100	2e-09
0	0.70637643	0.70637184	0	8.701763e-19	-2.685215e-20	0.7853982	0.69	100	2e-09
0	0.99295676	-1.5333079e-08	0	8.2484936e-19	-2.6309382e-20	0	0.68	100	2e-09
0	0.70664227	0.70663893	0	8.6682795e-19	-2.647853e-20	0.7853982	0.68	100	2e-09
0	0.9928991	-1.3750571e-08	0	8.221271e-19	-2.6180766e-20	0	0.67	100	2e-09
0	0.7067278	0.7067252	0	8.656633e-19	-2.6353822e-20	0.7853982	0.67	100	2e-09
0	0.99280274	-1.2835653e-08	0	8.136551e-19	-2.5669912e-20	0	0.66	100	2e-09
0	0.706947	0.70694506	0	8.593791e-19	-2.585012e-20	0.7853982	0.66	100	2e-09
0	0.99280286	-8.467198e-09	0	8.136552e-19	-2.566991e-20	0	0.65	100	2e-09
0	0.706947	0.7069451	0	8.59379e-19	-2.5850118e-20	0.7853982	0.65	100	2e-09
0	0.99322695	-1.8544757e-08	0	8.136005e-19	-2.5363043e-20	0	0.64	100	2e-09
0	0.706966	0.7069643	0	8.557243e-19	-2.5530883e-20	0.7853982	0.64	100	2e-09
0	0.9932013	-1.7065254e-08	0	8.1193107e-19	-2.523526e-20	0	0.63	100	2e-09
0	0.70693886	0.70693696	0	8.537064e-19	-2.5401935e-20	0.7853982	0.63	100	2e-09
0	0.99314106	-2.0243888e-08	0	8.092259e-19	-2.5106607e-20	0	0.62	100	2e-09
0	0.7069274	0.7069256	0	8.5197794e-19	-2.5273555e-20	0.7853982	0.62	100	2e-09
0	0.99331737	-1.666615e-08	0	8.0904426e-19	-2.4856776e-20	0	0.61	100	2e-09
0	0.70673007	0.70672375	0	8.4866813e-19	-2.5010557e-20	0.7853982	0.61	100	2e-09
0	0.9932464	-2.0116808e-08	0	8.0599347e-19	-2.4727865e-20	0	0.6	100	2e-09
0	0.70667636	0.7066708	0	8.467538e-19	-2.4880745e-20	0.7853982	0.6	100	2e-09
0	0.99374247	-1.7699993e-08	0	8.064307e-19	-2.4358618e-20	0	0.59	100	2e-09
0	0.7063605	0.7063545	0	8.422761e-19	-2.4486023e-20	0.7853982	0.59	100	2e-09
0	0.9932579	-2.2312216e-08	0	7.938202e-19	-2.3965327e-20	0	0.58	100	2e-09
0	0.7058298	0.70581913	0	8.3263483e-19	-2.408424e-20	0.7853982	0.58	100	2e-09
0	0.9937012	-2.0324382e-08	0	7.995892e-19	-2.3912425e-20	0	0.57	100	2e-09
0	0.7055339	0.7055222	0	8.3271445e-19	-2.4010274e-20	0.7853982	0.57	100	2e-09
0	0.99376094	-1.4479312e-08	0	7.9711797e-19	-2.3659466e-20	0	0.56	100	2e-09
0	0.70490223	0.7048892	0	8.277505e-19	-2.3733555e-20	0.7853982	0.56	100	2e-09
0	0.9936491	-1.9672301e-08	0	7.9394713e-19	-2.3529615e-20	0	0.55	100	2e-09
0	0.70451075	0.7044927	0	8.2407775e-19	-2.3592758e-20	0.7853982	0.55	100	2e-09
0	0.9938814	-1.9561591e-08	0	7.940971e-19	-2.3280677e-20	0	0.54	100	2e-09
0	0.70360684	0.7035876	0	8.191985e-19	-2.3307743e-20	0.7853982	0.54	100	2e-09
0	0.9943386	-1.861869e-08	0	7.9649e-19	-2.2909562e-20	0	0.53	100	2e-09
0	0.701607	0.7015803	0	8.0991715e-19	-2.2860366e-20	0.7853982	0.53	100	2e-09
0	0.9943349	-2.7946218e-08	0	7.902968e-19	-2.2654924e-20	0	0.52	100	2e-09
0	0.7014915	0.7014651	0	8.0495437e-19	-2.2602642e-20	0.7853982	0.52	100	2e-09
0	0.9948275	-2.5677329e-08	0	7.956517e-19	-2.2475145e-20	0	0.51	100	2e-09
0	0.70005083	0.7000213	0	8.00619e-19	-2.2366093e-20	0.7853982	0.51	100	2e-09
0	0.99446636	-1.636331e-08	0	7.748124e-19	-2.1830524e-20	0	0.5	100	2e-09
0	0.6994428	0.69941247	0	7.831481e-19	-2.17136e-20	0.7853982	0.5	100	2e-09
0	0.9946007	-1.5956068e-08	0	7.754116e-19	-2.1706168e-20	0	0.49	100	2e-09
0	0.69853127	0.69849634	0	7.7951836e-19	-2.155879e-20	0.7853982	0.49	100	2e-09
0	0.9949174	-2.0030344e-08	0	7.772993e-19	-2.1458377e-20	0	0.48	100	2e-09
0	0.6965998	0.6965674	0	7.724328e-19	-2.1247027e-20	0.7853982	0.48	100	2e-09
0	0.995299	-1.3374045e-08	0	7.7789176e-19	-2.1084417e-20	0	0.47	100	2e-09
0	0.6934867	0.6934526	0	7.598954e-19	-2.0775447e-20	0.7853982	0.47	100	2e-09
0	0.99572706	-1.9721039e-08	0	7.824566e-19	-2.0902303e-20	0	0.46	100	2e-09
0	0.6912599	0.6912267	0	7.535221e-19	-2.0521059e-20	0.7853982	0.46	100	2e-09
0	0.9957351	-1.3621316e-08	0	7.76369e-19	-2.0520109e-20	0	0.45	100	2e-09
0	0.68911874	0.6890868	0	7.414383e-19	-2.008329e-20	0.7853982	0.45	100	2e-09
0	0.9956234	-1.7219282e-08	0	7.7247006e-19	-2.0390366e-20	0	0.44	100	2e-09
0	0.6883579	0.6883333	0	7.3590976e-19	-1.9936618e-20	0.7853982	0.44	100	2e-09
0	0.9957332	-1.8159307e-08	0	7.6792315e-19	-2.0010257e-20	0	0.43	100	2e-09
0	0.68595797	0.68592435	0	7.2346354e-19	-1.9494476e-20	0.7853982	0.43	100	2e-09
0	0.9960043	-3.1112933e-08	0	7.6908844e-19	-1.9760724e-20	0	0.42	100	2e-09
0	0.6834507	0.6834214	0	7.145985e-19	-1.9175848e-20	0.7853982	0.42	100	2e-09
0	0.99667114	-2.137837e-08	0	7.6514475e-19	-1.9072299e-20	0	0.41	100	2e-09
0	0.6779079	0.6778857	0	6.8752213e-19	-1.8345509e-20	0.7853982	0.41	100	2e-09
0	0.99672353	-1.4617374e-08	0	7.641597e-19	-1.8945717e-20	0	0.4	100	2e-09
0	0.6768553	0.6768331	0	6.830279e-19	-1.8194502e-20	0.7853982	0.4	100	2e-09
0	0.99678254	-1.2060309e-08	0	7.6140807e-19	-1.8691666e-20	0	0.39	100	2e-09
0	0.6748577	0.6748361	0	6.734279e-19	-1.7896489e-20	0.7853982	0.39	100	2e-09
0	0.99678636	-2.5153062e-08	0	7.5277846e-19	-1.8181383e-20	0	0.38	100	2e-09
0	0.67168057	0.67165935	0	6.526938e-19	-1.73259e-20	0.7853982	0.38	100	2e-09
0	0.9970699	-2.678046e-08	0	7.564639e-19	-1.8058931e-20	0	0.37	100	2e-09
0	0.6692192	0.66920143	0	6.4701695e-19	-1.714131e-20	0.7853982	0.37	100	2e-09
0	0.99778825	-1.5280355e-08	0	7.642035e-19	-1.7624933e-20	0	0.36	100	2e-09
0	0.66233486	0.6623227	0	6.2649207e-19	-1.6545415e-20	0.7853982	0.36	100	2e-09
0	0.9977087	-2.0977179e-08	0	7.5465414e-19	-1.7240407e-20	0	0.35	100	2e-09
0	0.6615299	0.66151744	0	6.1172534e-19	-1.6166054e-20	0.7853982	0.35	100	2e-09
0	0.99771786	-2.8586527e-08	0	7.5089424e-19	-1.698515e-20	0	0.34	100	2e-09
0	0.65990806	0.659895	0	6.0167934e-19	-1.5887506e-20	0.7853982	0.34	100	2e-09
0	0.9979293	-2.7366555e-08	0	7.497602e-19	-1.6605546e-20	0	0.33	100	2e-09
0	0.6558285	0.65581757	0	5.8694555e-19	-1.5433164e-20	0.7853982	0.33	100	2e-09
0	0.9980957	-2.615999e-08	0	7.4527614e-19	-1.6225044e-20	0	0.32	100	2e-09
0	0.6537184	0.6537089	0	5.724553e-19	-1.502852e-20	0.7853982	0.32	100	2e-09
0	0.99864006	-2.136339e-08	0	7.501037e-19	-1.5786504e-20	0	0.31	100	2e-09
0	0.64694613	0.6469404	0	5.493136e-19	-1.446299e-20	0.7853982	0.31	100	2e-09
0	0.998641	-2.495623e-08	0	7.366794e-19	-1.5275213e-20	0	0.3	100	2e-09
0	0.64700323	0.6469966	0	5.37088e-19	-1.399578e-20	0.7853982	0.3	100	2e-09
0	0.99862486	-2.3819549e-08	0	7.252974e-19	-1.4891495e-20	0	0.29	100	2e-09
0	0.6468838	0.64687675	0	5.2475144e-19	-1.36419e-20	0.7853982	0.29	100	2e-09
0	0.9987281	-1.897932e-08	0	7.1933234e-19	-1.4381687e-20	0	0.28	100	2e-09
0	0.643145	0.64313877	0	5.046383e-19	-1.3097376e-20	0.7853982	0.28	100	2e-09
0	0.99912864	-1.5955806e-08	0	7.201617e-19	-1.3875898e-20	0	0.27	100	2e-09
0	0.63609326	0.6360897	0	4.793121e-19	-1.2493219e-20	0.7853982	0.27	100	2e-09
0	0.99926144	-2.2906876e-08	0	7.185547e-19	-1.3557978e-20	0	0.26	100	2e-09
0	0.6332581	0.63325506	0	4.6482e-19	-1.2150961e-20	0.7853982	0.26	100	2e-09
0	0.99923253	-1.444449e-08	0	7.1329423e-19	-1.3301784e-20	0	0.25	100	2e-09
0	0.63309455	0.6330909	0	4.5664547e-19	-1.1918613e-20	0.7853982	0.25	100	2e-09
0	0.999233	-1.3262828e-08	0	7.059042e-19	-1.2918083e-20	0	0.24	100	2e-09
0	0.63156796	0.63156414	0	4.4333753e-19	-1.1546893e-20	0.7853982	0.24	100	2e-09
0	0.999423	-1.7017959e-08	0	7.0496266e-19	-1.2408838e-20	0	0.23	100	2e-09
0	0.6238772	0.6238749	0	4.20925e-19	-1.0954561e-20	0.7853982	0.23	100	2e-09
0	0.9996654	-1.42079175e-08	0	6.9688984e-19	-1.1708082e-20	0	0.22	100	2e-09
0	0.6185535	0.6185527	0	3.8957565e-19	-1.0245261e-20	0.7853982	0.22	100	2e-09
0	0.99965376	-1.1953956e-08	0	6.942527e-19	-1.157999e-20	0	0.21	100	2e-09
0	0.6185645	0.6185633	0	3.8603503e-19	-1.0133467e-20	0.7853982	0.21	100	2e-09
0	0.9996232	-1.013595e-08	0	6.85504e-19	-1.119578e-20	0	0.2	100	2e-09
0	0.6186239	0.61862177	0	3.749774e-19	-9.798486e-21	0.7853982	0.2	100	2e-09
0	0.99961287	-7.367326e-09	0	6.7123913e-19	-1.0555913e-20	0	0.19	100	2e-09
0	0.61606616	0.6160635	0	3.5367803e-19	-9.200371e-21	0.7853982	0.19	100	2e-09
0	0.9998784	-9.656688e-09	0	6.759363e-19	-9.9827864e-21	0	0.18	100	2e-09
0	0.6012282	0.6012278	0	3.21361e-19	-8.489043e-21	0.7853982	0.18	100	2e-09
0	0.9998663	-1.5297996e-08	0	6.5419786e-19	-9.4707325e-21	0	0.17	100	2e-09
0	0.6054639	0.60546356	0	3.0860173e-19	-8.110448e-21	0.7853982	0.17	100	2e-09
0	0.99985343	-1.250535e-08	0	6.4770057e-19	-9.214649e-21	0	0.16	100	2e-09
0	0.60622466	0.60622394	0	3.029945e-19	-7.90116e-21	0.7853982	0.16	100	2e-09
0	0.99982834	-7.982154e-09	0	6.33875e-19	-8.702506e-21	0	0.15	100	2e-09
0	0.60581756	0.6058157	0	2.8892437e-19	-7.457189e-21	0.7853982	0.15	100	2e-09
0	0.9999597	-3.540084e-09	0	6.2393086e-19	-7.7436885e-21	0	0.14	100	2e-09
0	0.5862839	0.5862836	0	2.429751e-19	-6.4207863e-21	0.7853982	0.14	100	2e-09
0	0.99995846	-2.572082e-09	0	6.102903e-19	-7.487689e-21	0	0.13	100	2e-09
0	0.5890992	0.5890989	0	2.3767812e-19	-6.2383417e-21	0.7853982	0.13	100	2e-09
0	0.99995637	-2.0717807e-09	0	6.0069215e-19	-7.2316855e-21	0	0.12	100	2e-09
0	0.59166926	0.591669	0	2.343038e-19	-6.0513492e-21	0.7853982	0.12	100	2e-09
0	0.99994946	-9.889651e-10	0	5.7469055e-19	-6.5916674e-21	0	0.11	100	2e-09
0	0.5962791	0.59627867	0	2.2345822e-19	-5.5588068e-21	0.7853982	0.11	100	2e-09
0	0.9969568	-3.38047e-08	0	9.34825e-19	-3.088174e-20	0	1	100	4e-09
0	0.7011631	0.70115864	0	8.963632e-19	-3.071553e-20	0.7853982	1	100	4e-09
0	0.9969568	-3.38047e-08	0	9.34825e-19	-3.088174e-20	0	0.99	100	4e-09
0	0.7011631	0.70115864	0	8.963632e-19	-3.071553e-20	0.7853982	0.99	100	4e-09
0	0.9969568	-3.38047e-08	0	9.34825e-19	-3.088174e-20	0	0.98	100	4e-09
0	0.7011631	0.7011586	0	8.963632e-19	-3.0715526e-20	0.7853982	0.98	100	4e-09
0	0.9969568	-3.38047e-08	0	9.34825e-19	-3.088174e-20	0	0.97	100	4e-09
0	0.7011631	0.7011586	0	8.963632e-19	-3.071553e-20	0.7853982	0.97	100	4e-09
0	0.9969568	-3.38047e-08	0	9.34825e-19	-3.088174e-20	0	0.96	100	4e-09
0	0.7011632	0.7011587	0	8.963632e-19	-3.071553e-20	0.7853982	0.96	100	4e-09
0	0.99692684	-3.362153e-08	0	9.271773e-19	-3.037038e-20	0	0.95	100	4e-09
0	0.70175856	0.701753	0	8.958442e-19	-3.0233468e-20	0.7853982	0.95	100	4e-09
0	0.99692684	-3.362153e-08	0	9.271773e-19	-3.037038e-20	0	0.94	100	4e-09
0	0.70175856	0.701753	0	8.958443e-19	-3.0233464e-20	0.7853982	0.94	100	4e-09
0	0.99692684	-3.362153e-08	0	9.271773e-19	-3.037038e-20	0	0.93	100	4e-09
0	0.7017585	0.701753	0	8.958443e-19	-3.0233464e-20	0.7853982	0.93	100	4e-09
0	0.9959859	-2.3973527e-08	0	9.053558e-19	-2.95768e-20	0	0.92	100	4e-09
0	0.70295715	0.70294815	0	8.928368e-19	-2.9521543e-20	0.7853982	0.92	100	4e-09
0	0.99587995	-3.3772697e-08	0	8.951248e-19	-2.906376e-20	0	0.91	100	4e-09
0	0.7029116	0.70290333	0	8.839621e-19	-2.9010685e-20	0.7853982	0.91	100	4e-09
0	0.99587995	-3.2040763e-08	0	8.951247e-19	-2.906376e-20	0	0.9	100	4e-09
0	0.7029115	0.7029035	0	8.83962e-19	-2.9010685e-20	0.7853982	0.9	100	4e-09
0	0.99587995	-3.3772697e-08	0	8.951248e-19	-2.906376e-20	0	0.89	100	4e-09
0	0.7029115	0.7029035	0	8.839621e-19	-2.9010685e-20	0.7853982	0.89	100	4e-09
0	0.99587995	-3.3772697e-08	0	8.951248e-19	-2.906376e-20	0	0.88	100	4e-09
0	0.7029119	0.702903	0	8.839621e-19	-2.9010685e-20	0.7853982	0.88	100	4e-09
0	0.99587995	-3.3772697e-08	0	8.951248e-19	-2.906376e-20	0	0.87	100	4e-09
0	0.70291126	0.7029036	0	8.839621e-19	-2.9010688e-20	0.7853982	0.87	100	4e-09
0	0.99587995	-3.3772697e-08	0	8.951248e-19	-2.906376e-20	0	0.86	100	4e-09
0	0.7029118	0.7029031	0	8.839622e-19	-2.9010685e-20	0.7853982	0.86	100	4e-09
0	0.99587995	-3.3772697e-08	0	8.951248e-19	-2.906376e-20	0	0.85	100	4e-09
0	0.7029118	0.7029032	0	8.839621e-19	-2.9010685e-20	0.7853982	0.85	100	4e-09
0	0.99587995	-3.2040763e-08	0	8.951247e-19	-2.906376e-20	0	0.84	100	4e-09
0	0.7029118	0.7029031	0	8.839621e-19	-2.9010688e-20	0.7853982	0.84	100	4e-09
0	0.99587995	-3.3772697e-08	0	8.951248e-19	-2.906376e-20	0	0.83	100	4e-09