# t (s)	mx ()	my ()	mz ()	E_total (J)	E_Zeeman (J)	Angle (rad)	Roundness ()	Size (nm)	Cell_size (m)	Volume (m^3)
0	0.9945174	6.0799904e-10	0	6.3327293e-19	-3.1442658e-19	0	1	100	2e-09	3.952e-23
0	0.7018672	0.7018558	0	6.1839557e-19	-3.1381472e-19	0.7853982	1	100	2e-09	3.952e-23
0	0.99447984	6.1376477e-09	0	6.2667984e-19	-3.0677715e-19	0	1	99	2e-09	3.856e-23
0	0.7023494	0.70233667	0	6.183549e-19	-3.0640174e-19	0.7853982	1	99	2e-09	3.856e-23
0	0.99513453	5.8301985e-09	0	6.2161155e-19	-2.986996e-19	0	1	98	2e-09	3.752e-23
0	0.7018654	0.7018565	0	6.0191364e-19	-2.979332e-19	0.7853982	1	98	2e-09	3.752e-23
0	0.9950962	6.0687486e-09	0	6.170061e-19	-2.9359318e-19	0	1	97	2e-09	3.688e-23
0	0.70206875	0.7020597	0	6.0028383e-19	-2.9293596e-19	0.7853982	1	97	2e-09	3.688e-23
0	0.99479705	4.6256377e-09	0	6.085324e-19	-2.8713822e-19	0	1	96	2e-09	3.608e-23
0	0.7025827	0.70257163	0	6.0031335e-19	-2.86791e-19	0.7853982	1	96	2e-09	3.608e-23
0	0.995081	6.253465e-09	0	6.076643e-19	-2.8339906e-19	0	1	95	2e-09	3.56e-23
0	0.7025742	0.7025653	0	5.96851e-19	-2.8297265e-19	0.7853982	1	95	2e-09	3.56e-23
0	0.995718	4.8715334e-09	0	6.0056683e-19	-2.733843e-19	0	1	94	2e-09	3.432e-23
0	0.702324	0.7023153	0	5.824014e-19	-2.7270123e-19	0.7853982	1	94	2e-09	3.432e-23
0	0.9953829	2.697321e-09	0	5.9406447e-19	-2.701071e-19	0	1	93	2e-09	3.392e-23
0	0.7025808	0.7025729	0	5.813303e-19	-2.6962154e-19	0.7853982	1	93	2e-09	3.392e-23
0	0.99541444	5.6148006e-09	0	5.897222e-19	-2.6501916e-19	0	1	92	2e-09	3.328e-23
0	0.70276445	0.70275366	0	5.789508e-19	-2.6460295e-19	0.7853982	1	92	2e-09	3.328e-23
0	0.99579656	9.495839e-10	0	5.883815e-19	-2.600224e-19	0	1	91	2e-09	3.264e-23
0	0.7029013	0.702892	0	5.76077e-19	-2.5956527e-19	0.7853982	1	91	2e-09	3.264e-23
0	0.9959954	1.07503935e-08	0	5.773245e-19	-2.511502e-19	0	1	90	2e-09	3.152e-23
0	0.7027542	0.7027481	0	5.622094e-19	-2.5060675e-19	0.7853982	1	90	2e-09	3.152e-23
0	0.996023	3.1139606e-09	0	5.7507876e-19	-2.4860732e-19	0	1	89	2e-09	3.12e-23
0	0.70287067	0.7028626	0	5.611195e-19	-2.4810329e-19	0.7853982	1	89	2e-09	3.12e-23
0	0.9960365	3.0694636e-09	0	5.701303e-19	-2.4351099e-19	0	1	88	2e-09	3.056e-23
0	0.70312554	0.70311797	0	5.5905653e-19	-2.431022e-19	0.7853982	1	88	2e-09	3.056e-23
0	0.99599075	2.8567253e-09	0	5.624166e-19	-2.3648804e-19	0	1	87	2e-09	2.968e-23
0	0.703555	0.70354646	0	5.5602734e-19	-2.3624586e-19	0.7853982	1	87	2e-09	2.968e-23
0	0.9966965	5.83698e-09	0	5.565987e-19	-2.2900097e-19	0	1	86	2e-09	2.872e-23
0	0.7030424	0.7030358	0	5.399269e-19	-2.2843823e-19	0.7853982	1	86	2e-09	2.872e-23
0	0.9965713	3.6830774e-09	0	5.5160875e-19	-2.251454e-19	0	1	85	2e-09	2.824e-23
0	0.7033859	0.7033791	0	5.39757e-19	-2.2473008e-19	0.7853982	1	85	2e-09	2.824e-23
0	0.9962891	1.3182617e-09	0	5.459487e-19	-2.225311e-19	0	1	84	2e-09	2.792e-23
0	0.7035519	0.7035453	0	5.3764455e-19	-2.2223603e-19	0.7853982	1	84	2e-09	2.792e-23
0	0.99657744	1.3186868e-10	0	5.4147114e-19	-2.1621744e-19	0	1	83	2e-09	2.712e-23
0	0.7037635	0.7037559	0	5.331658e-19	-2.15933e-19	0.7853982	1	83	2e-09	2.712e-23
0	0.9969417	3.2881973e-09	0	5.312961e-19	-2.080019e-19	0	1	82	2e-09	2.608e-23
0	0.70356166	0.70355684	0	5.1860585e-19	-2.0759327e-19	0.7853982	1	82	2e-09	2.608e-23
0	0.9969369	5.5588316e-09	0	5.267189e-19	-2.0417268e-19	0	1	81	2e-09	2.56e-23
0	0.70369136	0.7036852	0	5.1547347e-19	-2.038099e-19	0.7853982	1	81	2e-09	2.56e-23
0	0.997048	-5.617408e-09	0	5.248847e-19	-2.01643e-19	0	1	80	2e-09	2.528e-23
0	0.7038591	0.70385265	0	5.14595e-19	-2.013102e-19	0.7853982	1	80	2e-09	2.528e-23
0	0.9967401	5.088795e-09	0	5.1448344e-19	-1.952016e-19	0	1	79	2e-09	2.448e-23
0	0.70435613	0.704351	0	5.1110947e-19	-1.9507748e-19	0.7853982	1	79	2e-09	2.448e-23
0	0.9975042	1.04647935e-08	0	5.095102e-19	-1.889672e-19	0	1	78	2e-09	2.368e-23
0	0.7038349	0.7038302	0	4.9611026e-19	-1.8856283e-19	0.7853982	1	78	2e-09	2.368e-23
0	0.99748904	5.1447544e-09	0	5.0454817e-19	-1.8513396e-19	0	1	77	2e-09	2.32e-23
0	0.7040429	0.704038	0	4.934178e-19	-1.8479512e-19	0.7853982	1	77	2e-09	2.32e-23
0	0.9971637	5.8729666e-09	0	4.943527e-19	-1.7932993e-19	0	1	76	2e-09	2.248e-23
0	0.7044888	0.70448464	0	4.89605e-19	-1.7917362e-19	0.7853982	1	76	2e-09	2.248e-23
0	0.99735063	-5.87501e-10	0	4.942429e-19	-1.7808695e-19	0	1	75	2e-09	2.232e-23
0	0.7044796	0.7044734	0	4.880306e-19	-1.7789578e-19	0.7853982	1	75	2e-09	2.232e-23
0	0.9979453	-2.0313375e-09	0	4.8400245e-19	-1.6925152e-19	0	1	74	2e-09	2.12e-23
0	0.7042627	0.7042581	0	4.7229097e-19	-1.6891729e-19	0.7853982	1	74	2e-09	2.12e-23
0	0.997694	6.351549e-10	0	4.7820743e-19	-1.666548e-19	0	1	73	2e-09	2.088e-23
0	0.70446116	0.70445734	0	4.6983337e-19	-1.6641457e-19	0.7853982	1	73	2e-09	2.088e-23
0	0.9977431	2.8980567e-09	0	4.7331197e-19	-1.6283168e-19	0	1	72	2e-09	2.04e-23
0	0.7046296	0.70462596	0	4.6620954e-19	-1.6262784e-19	0.7853982	1	72	2e-09	2.04e-23
0	0.99786776	1.4470749e-09	0	4.710539e-19	-1.602975e-19	0	1	71	2e-09	2.008e-23
0	0.70480627	0.7048037	0	4.6477945e-19	-1.6011708e-19	0.7853982	1	71	2e-09	2.008e-23
0	0.9981503	8.706692e-10	0	4.5779773e-19	-1.5203827e-19	0	1	70	2e-09	1.904e-23
0	0.704588	0.70458573	0	4.4789364e-19	-1.5177719e-19	0.7853982	1	70	2e-09	1.904e-23
0	0.99819064	4.0616013e-09	0	4.54572e-19	-1.4948904e-19	0	1	69	2e-09	1.872e-23
0	0.704748	0.7047454	0	4.4592686e-19	-1.4926015e-19	0.7853982	1	69	2e-09	1.872e-23
0	0.9982039	7.910114e-09	0	4.4900956e-19	-1.4565792e-19	0	1	68	2e-09	1.824e-23
0	0.7049879	0.70498353	0	4.4252426e-19	-1.4548229e-19	0.7853982	1	68	2e-09	1.824e-23
0	0.9979816	2.8532336e-09	0	4.3937466e-19	-1.4051581e-19	0	1	67	2e-09	1.76e-23
0	0.705352	0.70534694	0	4.372185e-19	-1.4045009e-19	0.7853982	1	67	2e-09	1.76e-23
0	0.99860865	3.7165042e-09	0	4.3333986e-19	-1.3549121e-19	0	1	66	2e-09	1.696e-23
0	0.7049106	0.7049082	0	4.237598e-19	-1.3525835e-19	0.7853982	1	66	2e-09	1.696e-23
0	0.9982642	3.5435688e-10	0	4.2328174e-19	-1.3097226e-19	0	1	65	2e-09	1.64e-23
0	0.70529485	0.70529205	0	4.190862e-19	-1.3086354e-19	0.7853982	1	65	2e-09	1.64e-23
0	0.99837774	4.220772e-09	0	4.2203308e-19	-1.2970924e-19	0	1	64	2e-09	1.624e-23
0	0.7052889	0.705286	0	4.17078e-19	-1.2958571e-19	0.7853982	1	64	2e-09	1.624e-23
0	0.998473	-1.0306006e-09	0	4.1660528e-19	-1.2588748e-19	0	1	63	2e-09	1.576e-23
0	0.70548445	0.70548207	0	4.1267808e-19	-1.2579052e-19	0.7853982	1	63	2e-09	1.576e-23
0	0.99881864	1.2535099e-09	0	4.0332337e-19	-1.1826013e-19	0	1	62	2e-09	1.48e-23
0	0.70531267	0.70531064	0	3.960748e-19	-1.1809942e-19	0.7853982	1	62	2e-09	1.48e-23
0	0.9987294	2.564954e-09	0	4.0026779e-19	-1.1697118e-19	0	1	61	2e-09	1.464e-23
0	0.7053982	0.7053961	0	3.9428213e-19	-1.1683683e-19	0.7853982	1	61	2e-09	1.464e-23
0	0.99879056	2.8303881e-09	0	3.9658937e-19	-1.1442144e-19	0	1	60	2e-09	1.432e-23
0	0.70557487	0.7055729	0	3.91749e-19	-1.1431166e-19	0.7853982	1	60	2e-09	1.432e-23
0	0.99855936	-8.771759e-10	0	3.867654e-19	-1.0992142e-19	0	1	59	2e-09	1.376e-23
0	0.70592356	0.70592123	0	3.8594947e-19	-1.0989561e-19	0.7853982	1	59	2e-09	1.376e-23
0	0.99913687	3.627559e-09	0	3.7633564e-19	-1.0359049e-19	0	1	58	2e-09	1.296e-23
0	0.70552725	0.7055252	0	3.691839e-19	-1.0344825e-19	0.7853982	1	58	2e-09	1.296e-23
0	0.9990894	-2.8230716e-09	0	3.7395297e-19	-1.0230674e-19	0	1	57	2e-09	1.28e-23
0	0.70571196	0.7057102	0	3.686414e-19	-1.0219788e-19	0.7853982	1	57	2e-09	1.28e-23
0	0.9988456	-1.0643687e-09	0	3.6454473e-19	-9.844622e-20	0	1	56	2e-09	1.232e-23
0	0.70600295	0.7060008	0	3.6281824e-19	-9.840599e-20	0.7853982	1	56	2e-09	1.232e-23
0	0.9989708	2.3405606e-09	0	3.6300198e-19	-9.717988e-20	0	1	55	2e-09	1.216e-23
0	0.7060027	0.706001	0	3.6051165e-19	-9.712799e-20	0.7853982	1	55	2e-09	1.216e-23
0	0.99939543	1.6231622e-09	0	3.4845922e-19	-8.954582e-20	0	1	54	2e-09	1.12e-23
0	0.70586824	0.705867	0	3.4281423e-19	-8.944298e-20	0.7853982	1	54	2e-09	1.12e-23
0	0.9992772	7.0087123e-09	0	3.4339199e-19	-8.761662e-20	0	1	53	2e-09	1.096e-23
0	0.7059935	0.7059921	0	3.392522e-19	-8.754187e-20	0.7853982	1	53	2e-09	1.096e-23
0	0.99921197	1.2141687e-09	0	3.4016583e-19	-8.633191e-20	0	1	52	2e-09	1.08e-23
0	0.7060903	0.70608884	0	3.3713098e-19	-8.62757e-20	0.7853982	1	52	2e-09	1.08e-23
0	0.9992803	-1.3792105e-09	0	3.3576797e-19	-8.377966e-20	0	1	51	2e-09	1.048e-23
0	0.70626754	0.7062662	0	3.3371141e-19	-8.374041e-20	0.7853982	1	51	2e-09	1.048e-23
0	0.9995217	5.6187227e-10	0	3.2066341e-19	-7.740296e-20	0	1	50	2e-09	9.68e-24
0	0.70604485	0.70604396	0	3.156537e-19	-7.7323655e-20	0.7853982	1	50	2e-09	9.68e-24
0	0.9995139	3.3909693e-09	0	3.1491896e-19	-7.48436e-20	0	1	49	2e-09	9.36e-24
0	0.7061988	0.70619786	0	3.1114267e-19	-7.47838e-20	0.7853982	1	49	2e-09	9.36e-24
0	0.99936455	1.4967684e-09	0	3.0667938e-19	-7.163444e-20	0	1	48	2e-09	8.96e-24
0	0.70647824	0.7064775	0	3.0567366e-19	-7.161624e-20	0.7853982	1	48	2e-09	8.96e-24
0	0.99945056	4.1392115e-10	0	3.0135014e-19	-6.908203e-20	0	1	47	2e-09	8.64e-24
0	0.70655674	0.7065561	0	3.0033625e-19	-6.9066195e-20	0.7853982	1	47	2e-09	8.64e-24
0	0.9997388	1.890037e-09	0	2.9214303e-19	-6.526295e-20	0	1	46	2e-09	8.16e-24
0	0.706302	0.70630145	0	2.8800214e-19	-6.520567e-20	0.7853982	1	46	2e-09	8.16e-24
0	0.99955094	4.1885757e-09	0	2.8389032e-19	-6.269184e-20	0	1	45	2e-09	7.84e-24
0	0.7064972	0.7064966	0	2.8210328e-19	-6.26659e-20	0.7853982	1	45	2e-09	7.84e-24
0	0.9996276	-2.6678512e-10	0	2.8141152e-19	-6.141712e-20	0	1	44	2e-09	7.68e-24
0	0.7065281	0.70652753	0	2.7943146e-19	-6.1389694e-20	0.7853982	1	44	2e-09	7.68e-24
0	0.9996904	2.844583e-09	0	2.7554942e-19	-5.886177e-20	0	1	43	2e-09	7.36e-24
0	0.70663446	0.7066339	0	2.738908e-19	-5.884065e-20	0.7853982	1	43	2e-09	7.36e-24
0	0.99976724	6.059207e-10	0	2.5821989e-19	-5.3107635e-20	0	1	42	2e-09	6.64e-24
0	0.7065507	0.7065501	0	2.5574e-19	-5.30782e-20	0.7853982	1	42	2e-09	6.64e-24
0	0.99976724	7.798424e-10	0	2.5821989e-19	-5.3107635e-20	0	1	41	2e-09	6.64e-24
0	0.7065507	0.7065501	0	2.5574e-19	-5.30782e-20	0.7853982	1	41	2e-09	6.64e-24
0	0.9997771	1.0610004e-10	0	2.5154932e-19	-5.0548726e-20	0	1	40	2e-09	6.32e-24
0	0.70670563	0.70670533	0	2.500989e-19	-5.05313e-20	0.7853982	1	40	2e-09	6.32e-24
0	0.999704	1.5522043e-09	0	2.4385587e-19	-4.798579e-20	0	1	39	2e-09	6e-24
0	0.7068603	0.7068601	0	2.4368606e-19	-4.798326e-20	0.7853982	1	39	2e-09	6e-24
0	0.99991506	2.5493267e-09	0	2.318509e-19	-4.415625e-20	0	1	38	2e-09	5.52e-24
0	0.70662314	0.7066227	0	2.291501e-19	-4.4129785e-20	0.7853982	1	38	2e-09	5.52e-24
0	0.99988616	2.5402866e-09	0	2.2819517e-19	-4.287512e-20	0	1	37	2e-09	5.36e-24
0	0.70676553	0.7067653	0	2.2664826e-19	-4.28593e-20	0.7853982	1	37	2e-09	5.36e-24
0	0.9997916	-2.1209416e-09	0	2.2104952e-19	-4.0951463e-20	0	1	36	2e-09	5.12e-24
0	0.7068635	0.70686316	0	2.2055194e-19	-4.0945893e-20	0.7853982	1	36	2e-09	5.12e-24
0	0.999864	-1.9997148e-09	0	2.1791988e-19	-3.96746e-20	0	1	35	2e-09	4.96e-24
0	0.70688945	0.70688933	0	2.1718227e-19	-3.9667802e-20	0.7853982	1	35	2e-09	4.96e-24
0	0.9999204	3.233759e-09	0	1.9949095e-19	-3.455725e-20	0	1	34	2e-09	4.32e-24
0	0.70685035	0.70685005	0	1.9829537e-19	-3.4547457e-20	0.7853982	1	34	2e-09	4.32e-24
0	0.99991703	2.6327773e-09	0	1.9496491e-19	-3.3277234e-20	0	1	33	2e-09	4.16e-24
0	0.7068931	0.7068929	0	1.9407323e-19	-3.326994e-20	0.7853982	1	33	2e-09	4.16e-24
0	0.99991703	2.6327773e-09	0	1.9496491e-19	-3.3277234e-20	0	1	32	2e-09	4.16e-24
0	0.7068931	0.7068929	0	1.9407323e-19	-3.326994e-20	0.7853982	1	32	2e-09	4.16e-24
0	0.99983996	2.0013529e-09	0	1.8341259e-19	-3.0075182e-20	0	1	31	2e-09	3.76e-24
0	0.70705754	0.70705754	0	1.838371e-19	-3.0077903e-20	0.7853982	1	31	2e-09	3.76e-24
0	0.9999886	1.8247425e-09	0	1.7330996e-19	-2.7519688e-20	0	1	30	2e-09	3.44e-24
0	0.7068763	0.7068761	0	1.7194775e-19	-2.7511026e-20	0.7853982	1	30	2e-09	3.44e-24
0	0.9999842	1.476487e-10	0	1.6833026e-19	-2.6239583e-20	0	1	29	2e-09	3.28e-24
0	0.70693576	0.7069357	0	1.6739981e-19	-2.6233652e-20	0.7853982	1	29	2e-09	3.28e-24
0	0.9999199	1.050723e-09	0	1.6279689e-19	-2.4958e-20	0	1	28	2e-09	3.12e-24
0	0.7070393	0.70703906	0	1.6276894e-19	-2.4957613e-20	0.7853982	1	28	2e-09	3.12e-24
0	0.99993503	1.7242053e-09	0	1.5782505e-19	-2.367846e-20	0	1	27	2e-09	2.96e-24
0	0.70706093	0.7070608	0	1.578413e-19	-2.3678462e-20	0.7853982	1	27	2e-09	2.96e-24
0	0.9999979	1.5359312e-09	0	1.4095884e-19	-1.983996e-20	0	1	26	2e-09	2.48e-24
0	0.7069878	0.7069878	0	1.4028664e-19	-1.9836662e-20	0.7853982	1	26	2e-09	2.48e-24
0	0.9999813	1.7307078e-09	0	1.374921e-19	-1.919964e-20	0	1	25	2e-09	2.4e-24
0	0.707036	0.70703596	0	1.3717932e-19	-1.9198077e-20	0.7853982	1	25	2e-09	2.4e-24
0	0.9999859	1.6214992e-09	0	1.319784e-19	-1.7919747e-20	0	1	24	2e-09	2.24e-24
0	0.7070714	0.7070714	0	1.3183871e-19	-1.7919102e-20	0.7853982	1	24	2e-09	2.24e-24
0	0.9999859	1.6298145e-09	0	1.3197841e-19	-1.7919747e-20	0	1	23	2e-09	2.24e-24
0	0.7070714	0.7070714	0	1.3183871e-19	-1.7919102e-20	0.7853982	1	23	2e-09	2.24e-24
0	0.99999815	-1.703897e-09	0	1.1211274e-19	-1.4079974e-20	0	1	22	2e-09	1.76e-24
0	0.7070417	0.7070417	0	1.1174552e-19	-1.4078703e-20	0.7853982	1	22	2e-09	1.76e-24
0	0.99999815	-1.703897e-09	0	1.1211274e-19	-1.4079974e-20	0	1	21	2e-09	1.76e-24
0	0.7070417	0.7070417	0	1.1174552e-19	-1.4078703e-20	0.7853982	1	21	2e-09	1.76e-24
0	0.9999979	7.2759576e-10	0	1.05739726e-19	-1.2799972e-20	0	1	20	2e-09	1.6e-24
0	0.70708746	0.7070874	0	1.056494e-19	-1.279965e-20	0.7853982	1	20	2e-09	1.6e-24
0	0.99998015	0	0	1.0193217e-19	-1.2159758e-20	0	1	19	2e-09	1.52e-24
0	0.70710546	0.70710534	0	1.0200787e-19	-1.2159976e-20	0.7853982	1	19	2e-09	1.52e-24
0	0.9999717	3.228585e-09	0	8.6626076e-20	-9.599729e-21	0	1	18	2e-09	1.2e-24
0	0.7070573	0.7070573	0	8.640395e-20	-9.599328e-21	0.7853982	1	18	2e-09	1.2e-24
0	0.9999981	5.373015e-10	0	7.8394866e-20	-8.319984e-21	0	1	17	2e-09	1.04e-24
0	0.7071024	0.70710224	0	7.837838e-20	-8.319947e-21	0.7853982	1	17	2e-09	1.04e-24
0	0.9999981	5.373015e-10	0	7.8394866e-20	-8.319984e-21	0	1	16	2e-09	1.04e-24
0	0.7071024	0.70710224	0	7.837838e-20	-8.319947e-21	0.7853982	1	16	2e-09	1.04e-24
0	0.99999696	4.0216203e-10	0	7.072412e-20	-7.039979e-21	0	1	15	2e-09	8.8e-25
0	0.7070943	0.70709425	0	7.067219e-20	-7.039875e-21	0.7853982	1	15	2e-09	8.8e-25
0	0.9999938	-8.731149e-10	0	5.5473595e-20	-5.119968e-21	0	1	14	2e-09	6.4e-25
0	0.7070999	0.7070999	0	5.5454065e-20	-5.11995e-21	0.7853982	1	14	2e-09	6.4e-25
0	0.9999938	-8.731149e-10	0	5.5473595e-20	-5.119968e-21	0	1	13	2e-09	6.4e-25
0	0.7070999	0.7070999	0	5.5454065e-20	-5.11995e-21	0.7853982	1	13	2e-09	6.4e-25
0	0.9999938	-8.367351e-10	0	5.5473595e-20	-5.119968e-21	0	1	12	2e-09	6.4e-25
0	0.7070999	0.7070999	0	5.5454065e-20	-5.11995e-21	0.7853982	1	12	2e-09	6.4e-25
0	0.99999833	-2.8133704e-10	0	4.5548154e-20	-3.8399933e-21	0	1	11	2e-09	4.8e-25
0	0.70707375	0.7070737	0	4.547048e-20	-3.83982e-21	0.7853982	1	11	2e-09	4.8e-25
0	0.99997497	-6.4028427e-10	0	3.3211683e-20	-2.5599358e-21	0	1	10	2e-09	3.2e-25
0	0.70710135	0.70710135	0	3.3241565e-20	-2.5599804e-21	0.7853982	1	10	2e-09	3.2e-25
0	0.9932579	1.1318797e-09	0	5.825723e-19	-2.5681676e-19	0	0.65	100	2e-09	3.232e-23
0	0.70695466	0.70695126	0	6.26727e-19	-2.585038e-19	0.7853982	0.65	100	2e-09	3.232e-23
0	0.9938148	5.9363017e-09	0	5.848846e-19	-2.5250844e-19	0	0.65	99	2e-09	3.176e-23
0	0.7069611	0.7069587	0	6.2377354e-19	-2.5402722e-19	0.7853982	0.65	99	2e-09	3.176e-23
0	0.99418867	9.6549515e-09	0	5.7862793e-19	-2.4624063e-19	0	0.65	98	2e-09	3.096e-23
0	0.70684665	0.70684344	0	6.125157e-19	-2.4758831e-19	0.7853982	0.65	98	2e-09	3.096e-23
0	0.99370885	6.3669043e-09	0	5.656891e-19	-2.4103405e-19	0	0.65	97	2e-09	3.032e-23
0	0.70693594	0.7069346	0	6.0615015e-19	-2.4250113e-19	0.7853982	0.65	97	2e-09	3.032e-23
0	0.99394673	-3.5144248e-09	0	5.634597e-19	-2.360027e-19	0	0.65	96	2e-09	2.968e-23
0	0.7069704	0.7069674	0	6.01873e-19	-2.373937e-19	0.7853982	0.65	96	2e-09	2.968e-23
0	0.9940524	-1.4819956e-09	0	5.6155095e-19	-2.33483e-19	0	0.65	95	2e-09	2.936e-23
0	0.7069832	0.7069807	0	5.9918844e-19	-2.3483851e-19	0.7853982	0.65	95	2e-09	2.936e-23
0	0.9944673	2.8493723e-09	0	5.50783e-19	-2.2467009e-19	0	0.65	94	2e-09	2.824e-23
0	0.70687497	0.7068725	0	5.8450795e-19	-2.258455e-19	0.7853982	0.65	94	2e-09	2.824e-23
0	0.994426	3.0795022e-09	0	5.4895293e-19	-2.22115e-19	0	0.65	93	2e-09	2.792e-23
0	0.70695525	0.7069526	0	5.8310577e-19	-2.2331173e-19	0.7853982	0.65	93	2e-09	2.792e-23
0	0.9945086	4.5452886e-09	0	5.4442376e-19	-2.1831452e-19	0	0.65	92	2e-09	2.744e-23
0	0.7069784	0.70697594	0	5.785797e-19	-2.1947976e-19	0.7853982	0.65	92	2e-09	2.744e-23
0	0.9950044	4.1045114e-09	0	5.4496117e-19	-2.1269216e-19	0	0.65	91	2e-09	2.672e-23
0	0.70700324	0.70700157	0	5.753619e-19	-2.1372844e-19	0.7853982	0.65	91	2e-09	2.672e-23
0	0.99497515	2.7939677e-09	0	5.3011333e-19	-2.0631804e-19	0	0.65	90	2e-09	2.592e-23
0	0.70690674	0.7069045	0	5.5981314e-19	-2.07301e-19	0.7853982	0.65	90	2e-09	2.592e-23
0	0.9950787	9.132782e-09	0	5.30487e-19	-2.0379213e-19	0	0.65	89	2e-09	2.56e-23
0	0.70696765	0.70696545	0	5.5937365e-19	-2.0475936e-19	0.7853982	0.65	89	2e-09	2.56e-23
0	0.9951381	6.8158577e-09	0	5.253097e-19	-1.9998295e-19	0	0.65	88	2e-09	2.512e-23
0	0.70700186	0.70700026	0	5.547122e-19	-2.0092993e-19	0.7853982	0.65	88	2e-09	2.512e-23
0	0.99479496	3.2444114e-09	0	5.1382676e-19	-1.9482064e-19	0	0.65	87	2e-09	2.448e-23
0	0.7070647	0.7070639	0	5.4747006e-19	-1.958282e-19	0.7853982	0.65	87	2e-09	2.448e-23
0	0.99565804	5.5375937e-10	0	5.1163075e-19	-1.8861748e-19	0	0.65	86	2e-09	2.368e-23
0	0.70694256	0.7069406	0	5.3602214e-19	-1.8939574e-19	0.7853982	0.65	86	2e-09	2.368e-23
0	0.99563915	2.7684521e-09	0	5.0851445e-19	-1.8606504e-19	0	0.65	85	2e-09	2.336e-23
0	0.70700186	0.7070004	0	5.3413404e-19	-1.8685206e-19	0.7853982	0.65	85	2e-09	2.336e-23
0	0.9959681	1.8758086e-09	0	5.056733e-19	-1.8038974e-19	0	0.65	84	2e-09	2.264e-23
0	0.7070141	0.70701283	0	5.294269e-19	-1.810961e-19	0.7853982	0.65	84	2e-09	2.264e-23
0	0.9957144	4.0123647e-09	0	4.981395e-19	-1.7779476e-19	0	0.65	83	2e-09	2.232e-23
0	0.70703954	0.70703846	0	5.2410743e-19	-1.785429e-19	0.7853982	0.65	83	2e-09	2.232e-23
0	0.9961349	2.632447e-09	0	4.902983e-19	-1.7276963e-19	0	0.65	82	2e-09	2.168e-23
0	0.70694155	0.70694005	0	5.1156256e-19	-1.7339927e-19	0.7853982	0.65	82	2e-09	2.168e-23
0	0.99620765	1.0859572e-09	0	4.875066e-19	-1.6895682e-19	0	0.65	81	2e-09	2.12e-23
0	0.70702165	0.70702064	0	5.0928213e-19	-1.6957946e-19	0.7853982	0.65	81	2e-09	2.12e-23
0	0.9958145	2.157504e-10	0	4.761855e-19	-1.650662e-19	0	0.65	80	2e-09	2.072e-23
0	0.70706314	0.70706254	0	5.0190057e-19	-1.657497e-19	0.7853982	0.65	80	2e-09	2.072e-23
0	0.99637705	1.9554063e-09	0	4.7589215e-19	-1.60058e-19	0	0.65	79	2e-09	2.008e-23
0	0.7070264	0.70702577	0	4.969753e-19	-1.6062167e-19	0.7853982	0.65	79	2e-09	2.008e-23
0	0.9967368	-1.5547384e-09	0	4.694924e-19	-1.5628833e-19	0	0.65	78	2e-09	1.96e-23
0	0.7069819	0.70698076	0	4.867792e-19	-1.5677216e-19	0.7853982	0.65	78	2e-09	1.96e-23
0	0.9967399	2.5019429e-09	0	4.605569e-19	-1.505476e-19	0	0.65	77	2e-09	1.888e-23
0	0.7070546	0.7070541	0	4.792131e-19	-1.5102878e-19	0.7853982	0.65	77	2e-09	1.888e-23
0	0.99667287	-1.0308229e-09	0	4.5877955e-19	-1.4926173e-19	0	0.65	76	2e-09	1.872e-23
0	0.7070387	0.707038	0	4.7780806e-19	-1.497455e-19	0.7853982	0.65	76	2e-09	1.872e-23
0	0.9967975	3.8641716e-09	0	4.533617e-19	-1.4545272e-19	0	0.65	75	2e-09	1.824e-23
0	0.70705694	0.7070564	0	4.7191543e-19	-1.4590966e-19	0.7853982	0.65	75	2e-09	1.824e-23
0	0.99720025	4.20804e-09	0	4.438882e-19	-1.3912938e-19	0	0.65	74	2e-09	1.744e-23
0	0.7070374	0.70703685	0	4.5915886e-19	-1.3950625e-19	0.7853982	0.65	74	2e-09	1.744e-23
0	0.99688673	1.871349e-09	0	4.3490153e-19	-1.3653362e-19	0	0.65	73	2e-09	1.712e-23
0	0.70705605	0.70705545	0	4.526995e-19	-1.3695012e-19	0.7853982	0.65	73	2e-09	1.712e-23
0	0.9968917	3.6242507e-09	0	4.3393916e-19	-1.3525827e-19	0	0.65	72	2e-09	1.696e-23
0	0.7070624	0.7070619	0	4.518538e-19	-1.3567144e-19	0.7853982	0.65	72	2e-09	1.696e-23
0	0.9973253	3.3737617e-09	0	4.309337e-19	-1.302108e-19	0	0.65	71	2e-09	1.632e-23
0	0.7070242	0.7070238	0	4.459073e-19	-1.3054473e-19	0.7853982	0.65	71	2e-09	1.632e-23
0	0.99732435	2.0313287e-09	0	4.166098e-19	-1.2510436e-19	0	0.65	70	2e-09	1.568e-23
0	0.70704985	0.7070493	0	4.3132912e-19	-1.2542984e-19	0.7853982	0.65	70	2e-09	1.568e-23
0	0.9976577	-2.2966122e-09	0	4.155556e-19	-1.2195365e-19	0	0.65	69	2e-09	1.528e-23
0	0.7070512	0.7070507	0	4.2791542e-19	-1.2223036e-19	0.7853982	0.65	69	2e-09	1.528e-23
0	0.9976178	3.1093361e-09	0	4.1383308e-19	-1.2067183e-19	0	0.65	68	2e-09	1.512e-23
0	0.70703673	0.7070362	0	4.2666185e-19	-1.2094798e-19	0.7853982	0.65	68	2e-09	1.512e-23
0	0.9974229	3.1750815e-09	0	4.0011437e-19	-1.1426477e-19	0	0.65	67	2e-09	1.432e-23
0	0.7069588	0.70695853	0	4.1473848e-19	-1.14536e-19	0.7853982	0.65	67	2e-09	1.432e-23
0	0.99780726	4.7364406e-09	0	3.9414905e-19	-1.1175441e-19	0	0.65	66	2e-09	1.4e-23
0	0.70705366	0.70705324	0	4.057e-19	-1.1199154e-19	0.7853982	0.65	66	2e-09	1.4e-23
0	0.9978296	4.4333133e-09	0	3.896166e-19	-1.0920248e-19	0	0.65	65	2e-09	1.368e-23
0	0.7070691	0.7070686	0	4.0131334e-19	-1.0943412e-19	0.7853982	0.65	65	2e-09	1.368e-23
0	0.99806017	1.9755326e-09	0	3.8705575e-19	-1.0539516e-19	0	0.65	64	2e-09	1.32e-23
0	0.70700496	0.7070047	0	3.9747298e-19	-1.0558478e-19	0.7853982	0.65	64	2e-09	1.32e-23
0	0.9978397	4.1880592e-09	0	3.7809343e-19	-1.0281739e-19	0	0.65	63	2e-09	1.288e-23
0	0.7070395	0.70703936	0	3.901829e-19	-1.0303018e-19	0.7853982	0.65	63	2e-09	1.288e-23
0	0.99847007	2.3222588e-09	0	3.730418e-19	-9.84092e-20	0	0.65	62	2e-09	1.232e-23
0	0.707047	0.7070467	0	3.8021584e-19	-9.855164e-20	0.7853982	0.65	62	2e-09	1.232e-23
0	0.9984931	1.8258824e-09	0	3.6961648e-19	-9.71334e-20	0	0.65	61	2e-09	1.216e-23
0	0.70705914	0.7070587	0	3.7684175e-19	-9.727341e-20	0.7853982	0.65	61	2e-09	1.216e-23
0	0.9981959	1.2999711e-09	0	3.553224e-19	-9.199373e-20	0	0.65	60	2e-09	1.152e-23
0	0.70708954	0.7070893	0	3.6526678e-19	-9.215773e-20	0.7853982	0.65	60	2e-09	1.152e-23
0	0.9982558	4.4073856e-09	0	3.546515e-19	-9.072148e-20	0	0.65	59	2e-09	1.136e-23
0	0.7070159	0.7070157	0	3.6399194e-19	-9.08683e-20	0.7853982	0.65	59	2e-09	1.136e-23
0	0.99864095	5.2044496e-10	0	3.4453122e-19	-8.69217e-20	0	0.65	58	2e-09	1.088e-23
0	0.70702887	0.7070284	0	3.509366e-19	-8.703037e-20	0.7853982	0.65	58	2e-09	1.088e-23
0	0.99854314	4.78758e-09	0	3.351821e-19	-8.180065e-20	0	0.65	57	2e-09	1.024e-23
0	0.7070334	0.7070333	0	3.4279055e-19	-8.191149e-20	0.7853982	0.65	57	2e-09	1.024e-23
0	0.9986055	1.4782898e-09	0	3.3174135e-19	-8.052755e-20	0	0.65	56	2e-09	1.008e-23
0	0.7070733	0.70707315	0	3.3908204e-19	-8.063616e-20	0.7853982	0.65	56	2e-09	1.008e-23
0	0.99882436	4.876193e-09	0	3.3225392e-19	-7.862746e-20	0	0.65	55	2e-09	9.84e-24
0	0.70688576	0.70688564	0	3.3752156e-19	-7.869537e-20	0.7853982	0.65	55	2e-09	9.84e-24
0	0.999148	3.0407283e-09	0	3.2094404e-19	-7.481619e-20	0	0.65	54	2e-09	9.36e-24
0	0.7070666	0.70706636	0	3.2458665e-19	-7.487573e-20	0.7853982	0.65	54	2e-09	9.36e-24
0	0.9988364	1.5000062e-09	0	3.117565e-19	-7.223585e-20	0	0.65	53	2e-09	9.04e-24
0	0.7070866	0.70708656	0	3.1776808e-19	-7.231793e-20	0.7853982	0.65	53	2e-09	9.04e-24
0	0.99893415	1.7430257e-09	0	3.069819e-19	-6.968564e-20	0	0.65	52	2e-09	8.72e-24
0	0.7070545	0.7070544	0	3.1234648e-19	-6.975483e-20	0.7853982	0.65	52	2e-09	8.72e-24
0	0.99893415	1.0082207e-09	0	3.069819e-19	-6.968564e-20	0	0.65	51	2e-09	8.72e-24
0	0.7070545	0.70705444	0	3.1234645e-19	-6.975484e-20	0.7853982	0.65	51	2e-09	8.72e-24
0	0.99823534	-0.040560886	0	2.8695976e-19	-6.292875e-20	0	0.65	50	2e-09	7.88e-24
0	0.70713264	0.70706075	0	2.9402404e-19	-6.30391e-20	0.7853982	0.65	50	2e-09	7.88e-24
0	0.99916106	2.8899803e-09	0	2.8716219e-19	-6.2027915e-20	0	0.65	49	2e-09	7.76e-24
0	0.707069	0.7070689	0	2.9121377e-19	-6.207668e-20	0.7853982	0.65	49	2e-09	7.76e-24
0	0.9992104	-1.2744414e-09	0	2.833478e-19	-6.0751996e-20	0	0.65	48	2e-09	7.6e-24
0	0.7070911	0.707091	0	2.8722107e-19	-6.079865e-20	0.7853982	0.65	48	2e-09	7.6e-24
0	0.9991398	-1.9367277e-09	0	2.7322445e-19	-5.627154e-20	0	0.65	47	2e-09	7.04e-24
0	0.7068014	0.70680135	0	2.7678947e-19	-5.629568e-20	0.7853982	0.65	47	2e-09	7.04e-24
0	0.99938464	1.4191582e-09	0	2.6319362e-19	-5.3726925e-20	0	0.65	46	2e-09	6.72e-24
0	0.7070947	0.70709467	0	2.6607805e-19	-5.375908e-20	0.7853982	0.65	46	2e-09	6.72e-24
0	0.9994036	-4.0887332e-10	0	2.6143415e-19	-5.24487e-20	0	0.65	45	2e-09	6.56e-24
0	0.70704997	0.70704985	0	2.641111e-19	-5.247578e-20	0.7853982	0.65	45	2e-09	6.56e-24
0	0.9994394	9.662472e-10	0	2.5723872e-19	-5.117129e-20	0	0.65	44	2e-09	6.4e-24
0	0.7070791	0.70707905	0	2.598987e-19	-5.1197995e-20	0.7853982	0.65	44	2e-09	6.4e-24
0	0.9993117	4.404904e-10	0	2.4372318e-19	-4.732739e-20	0	0.65	43	2e-09	5.92e-24
0	0.7070562	0.7070561	0	2.4694994e-19	-4.7356604e-20	0.7853982	0.65	43	2e-09	5.92e-24
0	0.99960804	-1.3038516e-09	0	2.3744245e-19	-4.478244e-20	0	0.65	42	2e-09	5.6e-24
0	0.70708716	0.7070871	0	2.3912104e-19	-4.4798755e-20	0.7853982	0.65	42	2e-09	5.6e-24
0	0.99960804	-3.3261522e-11	0	2.3744243e-19	-4.478244e-20	0	0.65	41	2e-09	5.6e-24
0	0.70708716	0.70708704	0	2.3912106e-19	-4.479875e-20	0.7853982	0.65	41	2e-09	5.6e-24
0	0.99956185	-3.2891947e-10	0	2.2423023e-19	-4.0302336e-20	0	0.65	40	2e-09	5.04e-24
0	0.70692277	0.70692277	0	2.2581757e-19	-4.0309503e-20	0.7853982	0.65	40	2e-09	5.04e-24
0	0.99963397	2.8245029e-10	0	2.1953777e-19	-3.902571e-20	0	0.65	39	2e-09	4.88e-24
0	0.7070083	0.70700824	0	2.2088757e-19	-3.9034556e-20	0.7853982	0.65	39	2e-09	4.88e-24
0	0.99976	2.2888436e-10	0	2.1319443e-19	-3.7750933e-20	0	0.65	38	2e-09	4.72e-24
0	0.7070895	0.7070893	0	2.1409178e-19	-3.7759073e-20	0.7853982	0.65	38	2e-09	4.72e-24
0	0.9997588	-4.656613e-11	0	2.0539082e-19	-3.519151e-20	0	0.65	37	2e-09	4.4e-24
0	0.70709354	0.70709354	0	2.0653002e-19	-3.519934e-20	0.7853982	0.65	37	2e-09	4.4e-24
0	0.99961376	-2.987261e-10	0	1.9923926e-19	-3.39069e-20	0	0.65	36	2e-09	4.24e-24
0	0.7070626	0.7070626	0	2.0100517e-19	-3.3917882e-20	0.7853982	0.65	36	2e-09	4.24e-24
0	0.9997817	1.9226347e-09	0	1.9313271e-19	-3.1353153e-20	0	0.65	35	2e-09	3.92e-24
0	0.7069435	0.7069436	0	1.9357321e-19	-3.135276e-20	0.7853982	0.65	35	2e-09	3.92e-24
0	0.99987787	3.2992598e-09	0	1.8626992e-19	-3.0076326e-20	0	0.65	34	2e-09	3.76e-24
0	0.7070947	0.7070947	0	1.8667161e-19	-3.0079486e-20	0.7853982	0.65	34	2e-09	3.76e-24
0	0.9998332	1.086543e-09	0	1.7455911e-19	-2.6875515e-20	0	0.65	33	2e-09	3.36e-24
0	0.7070075	0.70700747	0	1.7499736e-19	-2.6876226e-20	0.7853982	0.65	33	2e-09	3.36e-24
0	0.9998332	1.086543e-09	0	1.7455911e-19	-2.6875515e-20	0	0.65	32	2e-09	3.36e-24
0	0.7070075	0.70700747	0	1.7499736e-19	-2.6876226e-20	0.7853982	0.65	32	2e-09	3.36e-24
0	0.99988157	2.0256266e-09	0	1.69201e-19	-2.5596967e-20	0	0.65	31	2e-09	3.2e-24
0	0.70704794	0.7070479	0	1.6946076e-19	-2.559787e-20	0.7853982	0.65	31	2e-09	3.2e-24
0	0.99986154	9.998021e-10	0	1.5024222e-19	-2.1756984e-20	0	0.65	30	2e-09	2.72e-24
0	0.70709956	0.7070995	0	1.5085926e-19	-2.1759774e-20	0.7853982	0.65	30	2e-09	2.72e-24
0	0.99986154	2.232435e-09	0	1.5024224e-19	-2.1756984e-20	0	0.65	29	2e-09	2.72e-24
0	0.70709956	0.7070995	0	1.5085926e-19	-2.1759774e-20	0.7853982	0.65	29	2e-09	2.72e-24
0	0.9999126	-6.693881e-10	0	1.4787196e-19	-2.047821e-20	0	0.65	28	2e-09	2.56e-24
0	0.70693624	0.70693636	0	1.4774853e-19	-2.0475063e-20	0.7853982	0.65	28	2e-09	2.56e-24
0	0.9999392	1.0089328e-09	0	1.4163184e-19	-1.9198833e-20	0	0.65	27	2e-09	2.4e-24
0	0.7069826	0.70698255	0	1.4150999e-19	-1.9196628e-20	0.7853982	0.65	27	2e-09	2.4e-24
0	0.9999357	-4.656613e-10	0	1.2593358e-19	-1.663893e-20	0	0.65	26	2e-09	2.08e-24
0	0.7071054	0.7071054	0	1.2621369e-19	-1.6639967e-20	0.7853982	0.65	26	2e-09	2.08e-24
0	0.9999676	-2.0489097e-09	0	1.248464e-19	-1.599948e-20	0	0.65	25	2e-09	2e-24
0	0.7070591	0.707059	0	1.2480727e-19	-1.599892e-20	0.7853982	0.65	25	2e-09	2e-24
0	0.9999675	-1.6763806e-09	0	1.248464e-19	-1.5999481e-20	0	0.65	24	2e-09	2e-24
0	0.70705914	0.707059	0	1.2480727e-19	-1.599892e-20	0.7853982	0.65	24	2e-09	2e-24
0	0.99992925	9.53497e-10	0	1.1119032e-19	-1.343905e-20	0	0.65	23	2e-09	1.68e-24
0	0.7069177	0.7069177	0	1.1091533e-19	-1.3436405e-20	0.7853982	0.65	23	2e-09	1.68e-24
0	0.99998015	0	0	1.0193217e-19	-1.2159758e-20	0	0.65	22	2e-09	1.52e-24
0	0.70710546	0.70710534	0	1.0200787e-19	-1.2159976e-20	0.7853982	0.65	22	2e-09	1.52e-24
0	0.99998015	-2.4508489e-11	0	1.0193217e-19	-1.2159758e-20	0	0.65	21	2e-09	1.52e-24
0	0.70710546	0.7071054	0	1.0200787e-19	-1.2159975e-20	0.7853982	0.65	21	2e-09	1.52e-24
0	0.99996835	-1.5522043e-10	0	8.8271106e-20	-9.599696e-21	0	0.65	20	2e-09	1.2e-24
0	0.70698386	0.7069838	0	8.8039185e-20	-9.598332e-21	0.7853982	0.65	20	2e-09	1.2e-24
0	0.99996835	-1.5522043e-10	0	8.8271106e-20	-9.599696e-21	0	0.65	19	2e-09	1.2e-24
0	0.70698386	0.7069838	0	8.8039185e-20	-9.598332e-21	0.7853982	0.65	19	2e-09	1.2e-24
0	0.9999936	9.7012766e-11	0	7.576483e-20	-7.679951e-21	0	0.65	18	2e-09	9.6e-25
0	0.7070847	0.70708483	0	7.5715596e-20	-7.6797605e-21	0.7853982	0.65	18	2e-09	9.6e-25
0	0.9999936	9.7012766e-11	0	7.576483e-20	-7.679951e-21	0	0.65	17	2e-09	9.6e-25
0	0.7070847	0.70708483	0	7.57156e-20	-7.6797605e-21	0.7853982	0.65	17	2e-09	9.6e-25
0	0.9999897	1.6530975e-09	0	6.625791e-20	-6.3999336e-21	0	0.65	16	2e-09	8e-25
0	0.7070361	0.707036	0	6.610125e-20	-6.39936e-21	0.7853982	0.65	16	2e-09	8e-25
0	0.9999897	2.0605513e-09	0	6.625791e-20	-6.3999336e-21	0	0.65	15	2e-09	8e-25
0	0.707036	0.707036	0	6.610125e-20	-6.39936e-21	0.7853982	0.65	15	2e-09	8e-25
0	0.9999938	-8.367351e-10	0	5.5473595e-20	-5.119968e-21	0	0.65	14	2e-09	6.4e-25
0	0.7070999	0.7070999	0	5.5454065e-20	-5.11995e-21	0.7853982	0.65	14	2e-09	6.4e-25
0	0.99999833	-2.8133704e-10	0	4.5548154e-20	-3.8399933e-21	0	0.65	13	2e-09	4.8e-25
0	0.7070737	0.7070737	0	4.5470474e-20	-3.83982e-21	0.7853982	0.65	13	2e-09	4.8e-25
0	0.99999833	-2.8133704e-10	0	4.5548154e-20	-3.8399933e-21	0	0.65	12	2e-09	4.8e-25
0	0.7070737	0.7070737	0	4.5470474e-20	-3.83982e-21	0.7853982	0.65	12	2e-09	4.8e-25
0	0.999998	5.820766e-10	0	4.156097e-20	-3.1999934e-21	0	0.65	11	2e-09	4e-25
0	0.706745	0.70674497	0	4.1034336e-20	-3.1983625e-21	0.7853982	0.65	11	2e-09	4e-25
0	0.9999995	-8.2945917e-10	0	2.6735461e-20	-1.919999e-21	0	0.65	10	2e-09	2.4e-25