# t (s)	mx ()	my ()	mz ()	E_total (J)	E_Zeeman (J)	Angle (rad)	Length (nm)
0	0.9999883	-1.0960221e-10	0	-1.5623487e-16	-1.5719817e-16	0	100
0	0.99993837	0.009999978	0	-1.5623487e-16	-1.5719817e-16	0.01	100
0	0.99978846	0.019998956	0	-1.5623487e-16	-1.5719817e-16	0.02	100
0	0.9995383	0.029995935	0	-1.5623488e-16	-1.5719817e-16	0.03	100
0	0.9991885	0.039989907	0	-1.5623487e-16	-1.5719818e-16	0.04	100
0	0.9987386	0.04997988	0	-1.562349e-16	-1.571982e-16	0.05	100
0	0.99818885	0.05996486	0	-1.5623487e-16	-1.5719817e-16	0.06	100
0	0.9975392	0.069943845	0	-1.5623486e-16	-1.5719816e-16	0.07	100
0	0.9967899	0.079915814	0	-1.5623487e-16	-1.5719816e-16	0.08	100
0	0.9959409	0.089879796	0	-1.5623487e-16	-1.5719814e-16	0.09	100
0	0.9949923	0.099834785	0	-1.562349e-16	-1.5719817e-16	0.1	100
0	0.99394417	0.10977978	0	-1.5623488e-16	-1.5719814e-16	0.11	100
0	0.9927966	0.11971381	0	-1.5623488e-16	-1.5719814e-16	0.12	100
0	0.99154973	0.12963584	0	-1.5623491e-16	-1.5719816e-16	0.13	100
0	0.99020374	0.13954492	0	-1.5623491e-16	-1.5719814e-16	0.14	100
0	0.9887588	0.14944002	0	-1.5623488e-16	-1.571981e-16	0.15	100
0	0.9872149	0.15932019	0	-1.5623487e-16	-1.571981e-16	0.16	100
0	0.98557234	0.16918439	0	-1.5623492e-16	-1.5719813e-16	0.17	100
0	0.98383117	0.17903167	0	-1.5623494e-16	-1.5719813e-16	0.18	100
0	0.9819916	0.18886106	0	-1.5623495e-16	-1.5719813e-16	0.19	100
0	0.98005384	0.19867155	0	-1.5623496e-16	-1.571981e-16	0.2	100
0	0.97801816	0.20846216	0	-1.5623496e-16	-1.571981e-16	0.21	100
0	0.9758845	0.21823193	0	-1.5623496e-16	-1.571981e-16	0.22	100
0	0.9736533	0.22797982	0	-1.5623496e-16	-1.5719807e-16	0.23	100
0	0.9713249	0.23770495	0	-1.5623496e-16	-1.5719808e-16	0.24	100
0	0.9688992	0.24740626	0	-1.56235e-16	-1.571981e-16	0.25	100
0	0.9663767	0.25708288	0	-1.5623498e-16	-1.5719805e-16	0.26	100
0	0.96375746	0.26673374	0	-1.56235e-16	-1.5719807e-16	0.27	100
0	0.961042	0.27635786	0	-1.5623499e-16	-1.5719804e-16	0.28	100
0	0.9582303	0.28595442	0	-1.56235e-16	-1.5719805e-16	0.29	100
0	0.95532274	0.29552236	0	-1.56235e-16	-1.5719801e-16	0.3	100
0	0.95231974	0.30506074	0	-1.5623503e-16	-1.5719803e-16	0.31	100
0	0.94922155	0.31456858	0	-1.5623506e-16	-1.5719804e-16	0.32	100
0	0.9460285	0.32404494	0	-1.5623507e-16	-1.5719803e-16	0.33	100
0	0.94274056	0.33348888	0	-1.5623507e-16	-1.5719801e-16	0.34	100
0	0.9393586	0.34289944	0	-1.562351e-16	-1.57198e-16	0.35	100
0	0.9358825	0.35227582	0	-1.5623511e-16	-1.5719801e-16	0.36	100
0	0.932313	0.3616169	0	-1.5623511e-16	-1.57198e-16	0.37	100
0	0.9286502	0.37092176	0	-1.5623511e-16	-1.5719797e-16	0.38	100
0	0.92489463	0.38018957	0	-1.562351e-16	-1.5719795e-16	0.39	100
0	0.92104656	0.38941926	0	-1.5623515e-16	-1.5719797e-16	0.4	100
0	0.9171062	0.39861012	0	-1.5623516e-16	-1.5719797e-16	0.41	100
0	0.9130744	0.40776107	0	-1.5623516e-16	-1.5719796e-16	0.42	100
0	0.9089512	0.4168712	0	-1.5623519e-16	-1.5719796e-16	0.43	100
0	0.904737	0.42593962	0	-1.5623517e-16	-1.5719793e-16	0.44	100
0	0.90043247	0.4349655	0	-1.5623519e-16	-1.5719793e-16	0.45	100
0	0.89603776	0.4439479	0	-1.5623517e-16	-1.5719789e-16	0.46	100
0	0.8915536	0.4528858	0	-1.562352e-16	-1.571979e-16	0.47	100
0	0.8869803	0.46177843	0	-1.5623521e-16	-1.5719789e-16	0.48	100
0	0.8823182	0.47062486	0	-1.5623524e-16	-1.571979e-16	0.49	100
0	0.8775679	0.47942427	0	-1.5623524e-16	-1.5719789e-16	0.5	100
0	0.87272984	0.48817578	0	-1.5623523e-16	-1.5719788e-16	0.51	100
0	0.8678045	0.49687836	0	-1.5623528e-16	-1.5719789e-16	0.52	100
0	0.8627925	0.50553125	0	-1.5623527e-16	-1.5719787e-16	0.53	100
0	0.8576942	0.51413363	0	-1.5623525e-16	-1.5719784e-16	0.54	100
0	0.85251015	0.5226845	0	-1.5623529e-16	-1.5719787e-16	0.55	100
0	0.8472408	0.53118324	0	-1.5623528e-16	-1.5719784e-16	0.56	100
0	0.8418868	0.53962874	0	-1.5623527e-16	-1.5719781e-16	0.57	100
0	0.83644843	0.54802036	0	-1.562353e-16	-1.5719784e-16	0.58	100
0	0.83092666	0.55635715	0	-1.5623532e-16	-1.5719784e-16	0.59	100
0	0.8253217	0.56463826	0	-1.5623532e-16	-1.5719783e-16	0.6	100
0	0.8196342	0.5728629	0	-1.5623532e-16	-1.571978e-16	0.61	100
0	0.81386477	0.58103025	0	-1.562353e-16	-1.5719779e-16	0.62	100
0	0.80801404	0.5891396	0	-1.5623536e-16	-1.5719783e-16	0.63	100
0	0.8020825	0.59718996	0	-1.5623532e-16	-1.5719779e-16	0.64	100
0	0.79607064	0.6051806	0	-1.5623535e-16	-1.5719779e-16	0.65	100
0	0.7899793	0.61311066	0	-1.5623535e-16	-1.5719779e-16	0.66	100
0	0.78380877	0.62097955	0	-1.5623535e-16	-1.5719779e-16	0.67	100
0	0.77756006	0.62878615	0	-1.5623533e-16	-1.5719776e-16	0.68	100
0	0.77123356	0.6365301	0	-1.5623539e-16	-1.571978e-16	0.69	100
0	0.7648299	0.6442103	0	-1.5623535e-16	-1.5719776e-16	0.7	100
0	0.7583499	0.65182596	0	-1.5623536e-16	-1.5719776e-16	0.71	100
0	0.751794	0.6593766	0	-1.562354e-16	-1.571978e-16	0.72	100
0	0.7451629	0.66686124	0	-1.5623536e-16	-1.5719775e-16	0.73	100
0	0.73845726	0.67427915	0	-1.5623536e-16	-1.5719776e-16	0.74	100
0	0.73167783	0.6816298	0	-1.5623539e-16	-1.5719776e-16	0.75	100
0	0.7248253	0.68891203	0	-1.5623537e-16	-1.5719779e-16	0.76	100
0	0.71790016	0.69612557	0	-1.5623537e-16	-1.5719776e-16	0.77	100
0	0.71090335	0.7032696	0	-1.5623536e-16	-1.5719775e-16	0.78	100
0	0.7038353	0.7103431	0	-1.5623539e-16	-1.5719776e-16	0.79	100
0	0.69669706	0.7173456	0	-1.562354e-16	-1.5719779e-16	0.8	100
0	0.68948907	0.7242765	0	-1.5623539e-16	-1.5719777e-16	0.81	100
0	0.6822122	0.73113483	0	-1.5623536e-16	-1.5719775e-16	0.82	100
0	0.674867	0.7379202	0	-1.5623537e-16	-1.5719776e-16	0.83	100
0	0.66745436	0.7446316	0	-1.5623537e-16	-1.5719776e-16	0.84	100
0	0.65997505	0.7512686	0	-1.5623539e-16	-1.5719777e-16	0.85	100
0	0.6524296	0.7578306	0	-1.5623537e-16	-1.5719779e-16	0.86	100
0	0.6448191	0.7643167	0	-1.5623539e-16	-1.5719779e-16	0.87	100
0	0.637144	0.7707265	0	-1.5623535e-16	-1.5719777e-16	0.88	100
0	0.62940514	0.7770591	0	-1.5623539e-16	-1.5719779e-16	0.89	100
0	0.6216035	0.783314	0	-1.5623535e-16	-1.5719779e-16	0.9	100
0	0.6137396	0.7894907	0	-1.5623536e-16	-1.5719779e-16	0.91	100
0	0.6058143	0.79558843	0	-1.5623536e-16	-1.5719779e-16	0.92	100
0	0.5978285	0.80160654	0	-1.5623532e-16	-1.5719779e-16	0.93	100
0	0.5897829	0.8075446	0	-1.5623533e-16	-1.5719779e-16	0.94	100
0	0.5816783	0.81340176	0	-1.5623535e-16	-1.5719783e-16	0.95	100
0	0.5735155	0.8191777	0	-1.5623532e-16	-1.5719781e-16	0.96	100
0	0.5652953	0.8248718	0	-1.5623532e-16	-1.5719781e-16	0.97	100
0	0.5570186	0.83048326	0	-1.562353e-16	-1.5719783e-16	0.98	100
0	0.54868627	0.8360118	0	-1.5623529e-16	-1.5719783e-16	0.99	100
0	0.54029906	0.8414567	0	-1.562353e-16	-1.5719784e-16	1	100
0	0.5318578	0.8468175	0	-1.5623528e-16	-1.5719784e-16	1.01	100
0	0.5233633	0.8520936	0	-1.5623527e-16	-1.5719785e-16	1.02	100
0	0.51481646	0.8572844	0	-1.5623527e-16	-1.5719785e-16	1.03	100
0	0.50621814	0.8623897	0	-1.5623525e-16	-1.5719785e-16	1.04	100
0	0.4975692	0.86740863	0	-1.5623525e-16	-1.5719788e-16	1.05	100
0	0.48887053	0.87234086	0	-1.5623523e-16	-1.5719788e-16	1.06	100
0	0.48012298	0.8771858	0	-1.5623523e-16	-1.5719788e-16	1.07	100
0	0.47132736	0.8819431	0	-1.5623521e-16	-1.571979e-16	1.08	100
0	0.46248463	0.8866122	0	-1.562352e-16	-1.571979e-16	1.09	100
0	0.45359564	0.8911927	0	-1.5623519e-16	-1.5719788e-16	1.1	100
0	0.4446612	0.89568394	0	-1.5623517e-16	-1.5719789e-16	1.11	100
0	0.43568242	0.9000858	0	-1.5623519e-16	-1.571979e-16	1.12	100
0	0.42665997	0.9043975	0	-1.5623517e-16	-1.5719795e-16	1.13	100
0	0.41759485	0.90861887	0	-1.5623515e-16	-1.5719795e-16	1.14	100
0	0.40848804	0.91274935	0	-1.5623515e-16	-1.5719795e-16	1.15	100
0	0.3993403	0.9167886	0	-1.5623516e-16	-1.5719797e-16	1.16	100
0	0.39015263	0.92073613	0	-1.5623513e-16	-1.5719797e-16	1.17	100
0	0.3809259	0.9245916	0	-1.5623513e-16	-1.5719797e-16	1.18	100
0	0.37166113	0.9283546	0	-1.5623512e-16	-1.5719799e-16	1.19	100
0	0.36235917	0.9320248	0	-1.5623511e-16	-1.57198e-16	1.2	100
0	0.35302094	0.9356017	0	-1.5623511e-16	-1.57198e-16	1.21	100
0	0.3436474	0.93908525	0	-1.5623507e-16	-1.5719799e-16	1.22	100
0	0.3342395	0.94247466	0	-1.5623508e-16	-1.5719801e-16	1.23	100
0	0.3247982	0.9457701	0	-1.5623506e-16	-1.5719801e-16	1.24	100
0	0.31532437	0.94897074	0	-1.5623506e-16	-1.5719803e-16	1.25	100
0	0.305819	0.95207655	0	-1.5623504e-16	-1.5719803e-16	1.26	100
0	0.296283	0.9550871	0	-1.5623503e-16	-1.5719803e-16	1.27	100
0	0.28671744	0.95800227	0	-1.5623502e-16	-1.5719807e-16	1.28	100
0	0.2771231	0.96082157	0	-1.56235e-16	-1.5719805e-16	1.29	100
0	0.2675011	0.96354485	0	-1.56235e-16	-1.5719807e-16	1.3	100
0	0.2578523	0.9661717	0	-1.56235e-16	-1.5719808e-16	1.31	100
0	0.24817777	0.9687019	0	-1.5623499e-16	-1.5719808e-16	1.32	100
0	0.23847836	0.9711353	0	-1.5623498e-16	-1.5719808e-16	1.33	100
0	0.2287551	0.9734715	0	-1.5623496e-16	-1.5719809e-16	1.34	100
0	0.21900894	0.97571045	0	-1.5623496e-16	-1.571981e-16	1.35	100
0	0.20924093	0.97785187	0	-1.5623496e-16	-1.5719812e-16	1.36	100
0	0.19945191	0.9798954	0	-1.5623495e-16	-1.571981e-16	1.37	100
0	0.189643	0.98184097	0	-1.5623494e-16	-1.571981e-16	1.38	100
0	0.17981508	0.98368824	0	-1.5623495e-16	-1.5719814e-16	1.39	100
0	0.16996919	0.9854373	0	-1.5623492e-16	-1.5719812e-16	1.4	100
0	0.16010629	0.9870878	0	-1.5623491e-16	-1.5719814e-16	1.41	100
0	0.15022737	0.9886395	0	-1.5623491e-16	-1.5719813e-16	1.42	100
0	0.14033341	0.99009234	0	-1.5623491e-16	-1.5719813e-16	1.43	100
0	0.13042542	0.99144626	0	-1.562349e-16	-1.5719816e-16	1.44	100
0	0.12050438	0.9927009	0	-1.562349e-16	-1.5719816e-16	1.45	100
0	0.110571265	0.99385643	0	-1.5623488e-16	-1.5719816e-16	1.46	100
0	0.1006271	0.99491245	0	-1.5623488e-16	-1.5719816e-16	1.47	100
0	0.09067287	0.99586904	0	-1.5623488e-16	-1.5719816e-16	1.48	100
0	0.08070958	0.9967259	0	-1.562349e-16	-1.5719818e-16	1.49	100
0	0.070738204	0.9974833	0	-1.5623488e-16	-1.5719817e-16	1.5	100
0	0.060759753	0.9981407	0	-1.5623488e-16	-1.5719816e-16	1.51	100
0	0.050775215	0.9986985	0	-1.5623487e-16	-1.5719817e-16	1.52	100
0	0.0407856	0.9991563	0	-1.5623486e-16	-1.5719816e-16	1.53	100
0	0.030791905	0.9995143	0	-1.5623487e-16	-1.5719816e-16	1.54	100
0	0.02079513	0.99977213	0	-1.5623487e-16	-1.5719818e-16	1.55	100
0	0.010796273	0.99993	0	-1.5623488e-16	-1.571982e-16	1.56	100
0	0.00079633825	0.9999881	0	-1.5623488e-16	-1.5719817e-16	1.57	100
0	-0.009203677	0.99994606	0	-1.5623488e-16	-1.5719818e-16	1.58	100
0	-0.019202773	0.999804	0	-1.5623487e-16	-1.5719818e-16	1.59	100
0	-0.029199947	0.99956197	0	-1.5623487e-16	-1.571982e-16	1.6	100
0	-0.0391942	0.9992199	0	-1.5623487e-16	-1.5719817e-16	1.61	100
0	-0.049184527	0.9987781	0	-1.5623488e-16	-1.571982e-16	1.62	100
0	-0.059169937	0.9982363	0	-1.5623488e-16	-1.5719817e-16	1.63	100
0	-0.06914942	0.9975946	0	-1.5623487e-16	-1.5719816e-16	1.64	100
0	-0.07912199	0.9968532	0	-1.5623487e-16	-1.5719816e-16	1.65	100
0	-0.08908665	0.9960121	0	-1.562349e-16	-1.5719817e-16	1.66	100
0	-0.09904239	0.9950715	0	-1.5623488e-16	-1.5719816e-16	1.67	100
0	-0.108988225	0.99403125	0	-1.562349e-16	-1.5719816e-16	1.68	100
0	-0.11892315	0.9928916	0	-1.562349e-16	-1.5719816e-16	1.69	100
0	-0.12884618	0.9916526	0	-1.5623491e-16	-1.5719816e-16	1.7	100
0	-0.13875633	0.9903146	0	-1.562349e-16	-1.5719816e-16	1.71	100
0	-0.14865257	0.9888775	0	-1.5623491e-16	-1.5719814e-16	1.72	100
0	-0.15853396	0.9873415	0	-1.5623491e-16	-1.5719813e-16	1.73	100
0	-0.16839947	0.9857068	0	-1.5623492e-16	-1.5719816e-16	1.74	100
0	-0.17824817	0.98397344	0	-1.5623494e-16	-1.5719812e-16	1.75	100
0	-0.188079	0.98214173	0	-1.5623494e-16	-1.571981e-16	1.76	100
0	-0.197891	0.98021173	0	-1.5623494e-16	-1.5719812e-16	1.77	100
0	-0.20768325	0.9781838	0	-1.5623494e-16	-1.5719809e-16	1.78	100
0	-0.2174547	0.976058	0	-1.5623495e-16	-1.571981e-16	1.79	100
0	-0.22720441	0.97383463	0	-1.5623496e-16	-1.5719809e-16	1.8	100
0	-0.23693137	0.97151387	0	-1.5623496e-16	-1.5719807e-16	1.81	100
0	-0.24663463	0.9690959	0	-1.5623499e-16	-1.5719809e-16	1.82	100
0	-0.2563132	0.9665811	0	-1.5623499e-16	-1.5719807e-16	1.83	100
0	-0.26596615	0.9639696	0	-1.5623499e-16	-1.5719807e-16	1.84	100
0	-0.27559245	0.96126175	0	-1.56235e-16	-1.5719805e-16	1.85	100
0	-0.28519127	0.9584577	0	-1.5623502e-16	-1.5719807e-16	1.86	100
0	-0.29476148	0.9555578	0	-1.5623503e-16	-1.5719805e-16	1.87	100
0	-0.30430225	0.9525624	0	-1.5623504e-16	-1.5719803e-16	1.88	100
0	-0.31381258	0.9494717	0	-1.5623506e-16	-1.5719803e-16	1.89	100
0	-0.32329148	0.9462862	0	-1.5623506e-16	-1.5719801e-16	1.9	100
0	-0.332738	0.9430059	0	-1.5623508e-16	-1.5719804e-16	1.91	100
0	-0.34215134	0.93963134	0	-1.5623507e-16	-1.57198e-16	1.92	100
0	-0.35153043	0.9361628	0	-1.5623506e-16	-1.5719799e-16	1.93	100
0	-0.36087435	0.9326008	0	-1.562351e-16	-1.5719797e-16	1.94	100
0	-0.3701821	0.92894536	0	-1.562351e-16	-1.5719797e-16	1.95	100
0	-0.37945288	0.9251971	0	-1.5623512e-16	-1.5719797e-16	1.96	100
0	-0.38868573	0.9213563	0	-1.5623512e-16	-1.5719796e-16	1.97	100
0	-0.3978797	0.91742337	0	-1.5623513e-16	-1.5719795e-16	1.98	100
0	-0.4070338	0.9133988	0	-1.5623513e-16	-1.5719793e-16	1.99	100
0	-0.41614726	0.90928286	0	-1.5623516e-16	-1.5719793e-16	2	100
0	-0.42521903	0.90507597	0	-1.5623516e-16	-1.5719793e-16	2.01	100
0	-0.43424836	0.90077853	0	-1.5623519e-16	-1.5719793e-16	2.02	100
0	-0.4432342	0.89639103	0	-1.5623519e-16	-1.5719792e-16	2.03	100
0	-0.4521757	0.891914	0	-1.562352e-16	-1.571979e-16	2.04	100
0	-0.46107197	0.8873477	0	-1.5623521e-16	-1.5719789e-16	2.05	100
0	-0.46992218	0.8826926	0	-1.5623521e-16	-1.5719788e-16	2.06	100
0	-0.4787253	0.87794936	0	-1.5623521e-16	-1.5719787e-16	2.07	100
0	-0.4874806	0.87311834	0	-1.5623525e-16	-1.5719787e-16	2.08	100
0	-0.49618715	0.86819994	0	-1.5623524e-16	-1.5719787e-16	2.09	100
0	-0.504844	0.8631948	0	-1.5623525e-16	-1.5719787e-16	2.1	100
0	-0.51345044	0.85810333	0	-1.5623528e-16	-1.5719784e-16	2.11	100
0	-0.52200556	0.852926	0	-1.5623525e-16	-1.5719783e-16	2.12	100
0	-0.5305084	0.8476635	0	-1.5623527e-16	-1.5719783e-16	2.13	100
0	-0.5389582	0.8423162	0	-1.5623529e-16	-1.5719783e-16	2.14	100
0	-0.5473541	0.8368846	0	-1.562353e-16	-1.5719784e-16	2.15	100
0	-0.5556953	0.8313694	0	-1.562353e-16	-1.5719783e-16	2.16	100
0	-0.5639809	0.825771	0	-1.5623532e-16	-1.5719781e-16	2.17	100
0	-0.5722101	0.8200902	0	-1.5623533e-16	-1.5719783e-16	2.18	100
0	-0.58038205	0.8143271	0	-1.5623532e-16	-1.571978e-16	2.19	100
0	-0.588496	0.8084828	0	-1.5623535e-16	-1.5719781e-16	2.2	100
0	-0.59655094	0.8025577	0	-1.5623536e-16	-1.5719781e-16	2.21	100
0	-0.6045464	0.79655236	0	-1.5623533e-16	-1.5719779e-16	2.22	100
0	-0.6124814	0.79046714	0	-1.5623535e-16	-1.5719779e-16	2.23	100
0	-0.6203552	0.78430307	0	-1.5623536e-16	-1.571978e-16	2.24	100
0	-0.62816685	0.77806056	0	-1.5623536e-16	-1.5719779e-16	2.25	100
0	-0.6359157	0.7717402	0	-1.5623536e-16	-1.5719777e-16	2.26	100
0	-0.64360106	0.7653427	0	-1.5623537e-16	-1.5719779e-16	2.27	100
0	-0.6512219	0.7588687	0	-1.5623537e-16	-1.5719779e-16	2.28	100
0	-0.65877765	0.7523188	0	-1.5623537e-16	-1.5719779e-16	2.29	100
0	-0.66626763	0.7456937	0	-1.5623535e-16	-1.5719777e-16	2.3	100
0	-0.673691	0.738994	0	-1.5623536e-16	-1.5719776e-16	2.31	100
0	-0.68104684	0.73222035	0	-1.5623536e-16	-1.5719775e-16	2.32	100
0	-0.68833476	0.72537357	0	-1.5623537e-16	-1.5719775e-16	2.33	100
0	-0.69555366	0.7184543	0	-1.5623537e-16	-1.5719775e-16	2.34	100
0	-0.7027032	0.7114631	0	-1.5623539e-16	-1.5719777e-16	2.35	100
0	-0.70978236	0.7044008	0	-1.5623537e-16	-1.5719776e-16	2.36	100
0	-0.7167907	0.69726807	0	-1.5623537e-16	-1.5719775e-16	2.37	100
0	-0.7237271	0.6900656	0	-1.5623537e-16	-1.5719779e-16	2.38	100
0	-0.7305913	0.68279415	0	-1.5623537e-16	-1.5719776e-16	2.39	100
0	-0.7373825	0.67545444	0	-1.5623537e-16	-1.5719779e-16	2.4	100
0	-0.74409986	0.66804713	0	-1.5623537e-16	-1.5719775e-16	2.41	100
0	-0.75074285	0.66057307	0	-1.5623536e-16	-1.5719776e-16	2.42	100
0	-0.75731087	0.65303296	0	-1.5623539e-16	-1.5719779e-16	2.43	100
0	-0.763803	0.6454275	0	-1.5623536e-16	-1.5719776e-16	2.44	100
0	-0.77021885	0.63775754	0	-1.5623537e-16	-1.5719779e-16	2.45	100
0	-0.7765577	0.6300238	0	-1.5623535e-16	-1.5719777e-16	2.46	100
0	-0.78281885	0.622227	0	-1.5623536e-16	-1.5719779e-16	2.47	100
0	-0.78900176	0.6143681	0	-1.5623536e-16	-1.571978e-16	2.48	100
0	-0.7951058	0.6064477	0	-1.5623533e-16	-1.5719779e-16	2.49	100
0	-0.80113024	0.5984666	0	-1.5623532e-16	-1.5719779e-16	2.5	100
0	-0.8070747	0.5904257	0	-1.5623536e-16	-1.5719783e-16	2.51	100
0	-0.8129384	0.58232576	0	-1.5623535e-16	-1.5719783e-16	2.52	100
0	-0.8187208	0.57416755	0	-1.5623532e-16	-1.571978e-16	2.53	100
0	-0.8244214	0.56595194	0	-1.562353e-16	-1.5719781e-16	2.54	100
0	-0.8300395	0.5576798	0	-1.5623532e-16	-1.5719784e-16	2.55	100
0	-0.83557457	0.5493518	0	-1.5623528e-16	-1.5719781e-16	2.56	100
0	-0.8410262	0.5409689	0	-1.5623527e-16	-1.5719781e-16	2.57	100
0	-0.8463938	0.5325319	0	-1.5623527e-16	-1.5719784e-16	2.58	100
0	-0.8516766	0.5240416	0	-1.5623528e-16	-1.5719784e-16	2.59	100
0	-0.85687435	0.51549894	0	-1.5623528e-16	-1.5719787e-16	2.6	100
0	-0.86198634	0.5069047	0	-1.5623524e-16	-1.5719784e-16	2.61	100
0	-0.86701214	0.4982598	0	-1.5623527e-16	-1.5719788e-16	2.62	100
0	-0.8719513	0.48956507	0	-1.5623523e-16	-1.5719787e-16	2.63	100
0	-0.8768032	0.4808213	0	-1.5623524e-16	-1.5719788e-16	2.64	100
0	-0.8815676	0.47202957	0	-1.5623523e-16	-1.5719789e-16	2.65	100
0	-0.88624364	0.4631905	0	-1.562352e-16	-1.5719788e-16	2.66	100
0	-0.8908312	0.45430514	0	-1.5623521e-16	-1.5719792e-16	2.67	100
0	-0.8953296	0.4453743	0	-1.562352e-16	-1.5719793e-16	2.68	100
0	-0.8997386	0.436399	0	-1.562352e-16	-1.5719793e-16	2.69	100
0	-0.90405744	0.42738006	0	-1.562352e-16	-1.5719796e-16	2.7	100
0	-0.90828604	0.41831827	0	-1.562352e-16	-1.5719797e-16	2.71	100
0	-0.9124238	0.40921474	0	-1.5623513e-16	-1.5719793e-16	2.72	100
0	-0.9164702	0.40007022	0	-1.5623515e-16	-1.5719797e-16	2.73	100
0	-0.9204252	0.39088574	0	-1.5623512e-16	-1.5719795e-16	2.74	100
0	-0.9242879	0.3816621	0	-1.5623512e-16	-1.5719797e-16	2.75	100
0	-0.92805827	0.37240028	0	-1.5623512e-16	-1.5719799e-16	2.76	100
0	-0.931736	0.36310124	0	-1.5623511e-16	-1.5719797e-16	2.77	100
0	-0.93532044	0.3537659	0	-1.5623511e-16	-1.5719801e-16	2.78	100
0	-0.93881124	0.34439513	0	-1.5623508e-16	-1.5719801e-16	2.79	100
0	-0.94220823	0.3349899	0	-1.5623507e-16	-1.5719801e-16	2.8	100
0	-0.94551104	0.3255512	0	-1.5623507e-16	-1.5719803e-16	2.81	100
0	-0.9487193	0.31607994	0	-1.5623506e-16	-1.5719803e-16	2.82	100
0	-0.95183265	0.30657706	0	-1.5623504e-16	-1.5719804e-16	2.83	100
0	-0.95485085	0.29704347	0	-1.5623502e-16	-1.5719804e-16	2.84	100
0	-0.9577736	0.28748018	0	-1.5623502e-16	-1.5719805e-16	2.85	100
0	-0.9606006	0.27788815	0	-1.5623502e-16	-1.5719807e-16	2.86	100
0	-0.96333146	0.26826835	0	-1.5623498e-16	-1.5719804e-16	2.87	100
0	-0.965966	0.25862163	0	-1.5623498e-16	-1.5719807e-16	2.88	100
0	-0.968504	0.24894908	0	-1.5623499e-16	-1.5719808e-16	2.89	100
0	-0.9709451	0.23925164	0	-1.5623496e-16	-1.5719807e-16	2.9	100
0	-0.973289	0.22953026	0	-1.5623495e-16	-1.5719807e-16	2.91	100
0	-0.97553575	0.2197859	0	-1.5623498e-16	-1.5719812e-16	2.92	100
0	-0.9776849	0.21001954	0	-1.5623492e-16	-1.5719807e-16	2.93	100
0	-0.97973627	0.20023221	0	-1.5623495e-16	-1.571981e-16	2.94	100
0	-0.98168963	0.1904248	0	-1.5623492e-16	-1.5719809e-16	2.95	100
0	-0.9835448	0.18059836	0	-1.5623492e-16	-1.5719814e-16	2.96	100
0	-0.9853016	0.17075388	0	-1.5623492e-16	-1.5719812e-16	2.97	100
0	-0.98695993	0.1608923	0	-1.5623494e-16	-1.5719816e-16	2.98	100
0	-0.9885195	0.15101461	0	-1.5623492e-16	-1.5719814e-16	2.99	100
0	-0.9899803	0.1411218	0	-1.5623491e-16	-1.5719816e-16	3	100
0	-0.991342	0.1312149	0	-1.562349e-16	-1.5719816e-16	3.01	100
0	-0.9926047	0.12129487	0	-1.5623487e-16	-1.5719816e-16	3.02	100
0	-0.9937679	0.11136269	0	-1.5623488e-16	-1.5719816e-16	3.03	100
0	-0.994832	0.10141937	0	-1.5623491e-16	-1.5719818e-16	3.04	100
0	-0.9957965	0.09146591	0	-1.5623487e-16	-1.5719817e-16	3.05	100
0	-0.9966613	0.08150329	0	-1.5623488e-16	-1.5719817e-16	3.06	100
0	-0.9974265	0.07153252	0	-1.5623488e-16	-1.5719817e-16	3.07	100
0	-0.998092	0.061554592	0	-1.5623488e-16	-1.5719818e-16	3.08	100
0	-0.99865764	0.051570505	0	-1.5623487e-16	-1.5719817e-16	3.09	100
0	-0.9991236	0.041581266	0	-1.5623487e-16	-1.5719816e-16	3.1	100
0	-0.9994893	0.031587858	0	-1.5623487e-16	-1.5719817e-16	3.11	100
0	-0.99975526	0.02159129	0	-1.5623483e-16	-1.5719814e-16	3.12	100
0	-0.9999211	0.011592563	0	-1.5623488e-16	-1.5719818e-16	3.13	100
0	-0.99998707	0.0015926762	0	-1.5623487e-16	-1.571982e-16	3.14	100
0	-0.99995303	-0.008407369	0	-1.5623487e-16	-1.5719818e-16	3.15	100
0	-0.999819	-0.018406572	0	-1.5623484e-16	-1.5719816e-16	3.16	100
0	-0.9995849	-0.028403942	0	-1.5623486e-16	-1.5719816e-16	3.17	100
0	-0.9992509	-0.03839846	0	-1.5623488e-16	-1.571982e-16	3.18	100
0	-0.998817	-0.048389137	0	-1.5623486e-16	-1.5719816e-16	3.19	100
0	-0.9982831	-0.05837498	0	-1.562349e-16	-1.571982e-16	3.2	100
0	-0.99764943	-0.06835498	0	-1.5623488e-16	-1.5719817e-16	3.21	100
0	-0.996916	-0.078328125	0	-1.562349e-16	-1.5719817e-16	3.22	100
0	-0.99608284	-0.088293456	0	-1.5623487e-16	-1.5719816e-16	3.23	100
0	-0.99515	-0.098249935	0	-1.5623491e-16	-1.5719817e-16	3.24	100
0	-0.9941176	-0.1081966	0	-1.562349e-16	-1.5719817e-16	3.25	100
0	-0.9929861	-0.11813243	0	-1.562349e-16	-1.5719816e-16	3.26	100
0	-0.991755	-0.12805644	0	-1.562349e-16	-1.5719816e-16	3.27	100
0	-0.9904249	-0.13796765	0	-1.5623492e-16	-1.5719814e-16	3.28	100
0	-0.9889956	-0.14786503	0	-1.5623491e-16	-1.5719814e-16	3.29	100
0	-0.9874674	-0.15774764	0	-1.5623494e-16	-1.5719816e-16	3.3	100
0	-0.9858406	-0.16761447	0	-1.5623491e-16	-1.5719812e-16	3.31	100
0	-0.9841151	-0.17746451	0	-1.5623491e-16	-1.5719812e-16	3.32	100
0	-0.9822912	-0.18729681	0	-1.5623492e-16	-1.571981e-16	3.33	100
0	-0.980369	-0.19711038	0	-1.5623496e-16	-1.5719816e-16	3.34	100
0	-0.978349	-0.20690425	0	-1.5623495e-16	-1.5719812e-16	3.35	100
0	-0.976231	-0.21667738	0	-1.5623494e-16	-1.5719808e-16	3.36	100
0	-0.97401524	-0.22642884	0	-1.5623495e-16	-1.5719809e-16	3.37	100
0	-0.97170216	-0.23615763	0	-1.5623496e-16	-1.5719809e-16	3.38	100
0	-0.96929204	-0.24586281	0	-1.5623498e-16	-1.5719807e-16	3.39	100
0	-0.96678483	-0.25554338	0	-1.5623499e-16	-1.5719809e-16	3.4	100
0	-0.96418107	-0.26519844	0	-1.5623502e-16	-1.5719808e-16	3.41	100
0	-0.96148086	-0.2748269	0	-1.5623502e-16	-1.5719807e-16	3.42	100
0	-0.95868456	-0.28442794	0	-1.5623502e-16	-1.5719805e-16	3.43	100
0	-0.9557923	-0.29400045	0	-1.5623502e-16	-1.5719803e-16	3.44	100
0	-0.95280445	-0.30354363	0	-1.5623506e-16	-1.5719805e-16	3.45	100
0	-0.94972134	-0.31305644	0	-1.5623503e-16	-1.5719801e-16	3.46	100
0	-0.9465433	-0.32253784	0	-1.5623504e-16	-1.57198e-16	3.47	100
0	-0.94327056	-0.33198702	0	-1.5623508e-16	-1.5719803e-16	3.48	100
0	-0.93990356	-0.34140295	0	-1.5623508e-16	-1.5719801e-16	3.49	100
0	-0.93644243	-0.3507848	0	-1.5623508e-16	-1.5719799e-16	3.5	100
0	-0.9328878	-0.3601316	0	-1.5623508e-16	-1.5719797e-16	3.51	100
0	-0.9292399	-0.36944225	0	-1.5623512e-16	-1.5719799e-16	3.52	100
0	-0.9254989	-0.37871602	0	-1.5623511e-16	-1.5719796e-16	3.53	100
0	-0.9216656	-0.3879519	0	-1.5623513e-16	-1.5719797e-16	3.54	100
0	-0.91774	-0.39714897	0	-1.5623513e-16	-1.5719795e-16	3.55	100
0	-0.9137226	-0.40630633	0	-1.5623515e-16	-1.5719795e-16	3.56	100
0	-0.9096139	-0.4154231	0	-1.5623516e-16	-1.5719795e-16	3.57	100
0	-0.9054142	-0.4244982	0	-1.5623516e-16	-1.571979e-16	3.58	100
0	-0.90112406	-0.43353093	0	-1.5623515e-16	-1.5719789e-16	3.59	100
0	-0.8967437	-0.4425202	0	-1.5623517e-16	-1.5719789e-16	3.6	100
0	-0.8922737	-0.45146528	0	-1.562352e-16	-1.5719792e-16	3.61	100
0	-0.8877146	-0.46036524	0	-1.562352e-16	-1.571979e-16	3.62	100
0	-0.8830666	-0.46921915	0	-1.5623521e-16	-1.5719789e-16	3.63	100
0	-0.87833035	-0.47802603	0	-1.5623523e-16	-1.5719788e-16	3.64	100
0	-0.8735061	-0.48678517	0	-1.5623523e-16	-1.5719788e-16	3.65	100
0	-0.8685948	-0.49549565	0	-1.5623524e-16	-1.5719785e-16	3.66	100
0	-0.8635965	-0.5041565	0	-1.5623525e-16	-1.5719785e-16	3.67	100
0	-0.8585119	-0.51276696	0	-1.5623528e-16	-1.5719788e-16	3.68	100
0	-0.85334146	-0.5213262	0	-1.5623528e-16	-1.5719784e-16	3.69	100
0	-0.84808576	-0.52983326	0	-1.5623528e-16	-1.5719784e-16	3.7	100
0	-0.8427452	-0.53828734	0	-1.5623529e-16	-1.5719784e-16	3.71	100
0	-0.8373202	-0.54668754	0	-1.5623529e-16	-1.5719784e-16	3.72	100
0	-0.8318117	-0.5550331	0	-1.5623532e-16	-1.5719784e-16	3.73	100
0	-0.82621986	-0.56332314	0	-1.5623533e-16	-1.5719784e-16	3.74	100
0	-0.8205455	-0.5715569	0	-1.5623532e-16	-1.571978e-16	3.75	100
0	-0.81478906	-0.5797334	0	-1.5623532e-16	-1.5719783e-16	3.76	100
0	-0.80895126	-0.58785194	0	-1.5623532e-16	-1.571978e-16	3.77	100
0	-0.80303246	-0.59591186	0	-1.5623533e-16	-1.5719779e-16	3.78	100
0	-0.7970334	-0.60391194	0	-1.5623535e-16	-1.5719779e-16	3.79	100
0	-0.79095465	-0.6118518	0	-1.5623536e-16	-1.571978e-16	3.8	100
0	-0.78479683	-0.6197304	0	-1.5623535e-16	-1.5719779e-16	3.81	100
0	-0.77856046	-0.62754714	0	-1.5623536e-16	-1.5719779e-16	3.82	100
0	-0.7722463	-0.635301	0	-1.5623536e-16	-1.5719777e-16	3.83	100
0	-0.76585495	-0.64299136	0	-1.5623535e-16	-1.5719775e-16	3.84	100
0	-0.759387	-0.6506174	0	-1.5623537e-16	-1.5719777e-16	3.85	100
0	-0.7528431	-0.65817845	0	-1.5623539e-16	-1.5719779e-16	3.86	100
0	-0.746224	-0.6656736	0	-1.5623539e-16	-1.5719779e-16	3.87	100
0	-0.73953027	-0.6731022	0	-1.5623535e-16	-1.5719775e-16	3.88	100
0	-0.7327626	-0.6804636	0	-1.5623539e-16	-1.5719777e-16	3.89	100
0	-0.7259215	-0.6877569	0	-1.562354e-16	-1.5719776e-16	3.9	100
0	-0.7190079	-0.69498134	0	-1.5623537e-16	-1.5719776e-16	3.91	100
0	-0.7120224	-0.70213646	0	-1.5623539e-16	-1.5719777e-16	3.92	100
0	-0.7049658	-0.70922124	0	-1.5623537e-16	-1.5719776e-16	3.93	100
0	-0.6978387	-0.7162351	0	-1.5623537e-16	-1.5719776e-16	3.94	100
0	-0.69064176	-0.7231774	0	-1.5623537e-16	-1.5719775e-16	3.95	100
0	-0.6833757	-0.73004746	0	-1.5623537e-16	-1.5719777e-16	3.96	100
0	-0.6760414	-0.73684436	0	-1.562354e-16	-1.5719779e-16	3.97	100
0	-0.6686394	-0.7435677	0	-1.5623535e-16	-1.5719776e-16	3.98	100
0	-0.66117066	-0.75021666	0	-1.5623536e-16	-1.5719776e-16	3.99	100
0	-0.6536357	-0.7567906	0	-1.5623536e-16	-1.5719777e-16	4	100
0	-0.6460355	-0.7632888	0	-1.5623537e-16	-1.5719779e-16	4.01	100
0	-0.63837063	-0.7697108	0	-1.5623536e-16	-1.5719777e-16	4.02	100
0	-0.630642	-0.7760557	0	-1.5623535e-16	-1.5719777e-16	4.03	100
0	-0.6228502	-0.7823231	0	-1.5623535e-16	-1.5719777e-16	4.04	100
0	-0.6149962	-0.7885123	0	-1.5623536e-16	-1.571978e-16	4.05	100
0	-0.6070806	-0.79462254	0	-1.5623535e-16	-1.571978e-16	4.06	100
0	-0.5991044	-0.8006534	0	-1.5623533e-16	-1.5719779e-16	4.07	100
0	-0.5910681	-0.80660427	0	-1.5623535e-16	-1.5719781e-16	4.08	100
0	-0.5829729	-0.8124744	0	-1.5623532e-16	-1.5719779e-16	4.09	100
0	-0.5748194	-0.81826335	0	-1.5623533e-16	-1.5719783e-16	4.1	100
0	-0.56660825	-0.82397044	0	-1.562353e-16	-1.5719781e-16	4.11	100
0	-0.5583406	-0.8295952	0	-1.5623532e-16	-1.5719783e-16	4.12	100
0	-0.550017	-0.8351369	0	-1.5623528e-16	-1.5719783e-16	4.13	100
0	-0.54163843	-0.8405951	0	-1.5623529e-16	-1.5719784e-16	4.14	100
0	-0.53320575	-0.8459693	0	-1.5623529e-16	-1.5719785e-16	4.15	100
0	-0.52471966	-0.851259	0	-1.5623528e-16	-1.5719784e-16	4.16	100
0	-0.5161812	-0.85646343	0	-1.5623527e-16	-1.5719784e-16	4.17	100
0	-0.50759095	-0.8615824	0	-1.5623527e-16	-1.5719787e-16	4.18	100
0	-0.49895006	-0.8666152	0	-1.5623525e-16	-1.5719788e-16	4.19	100
0	-0.49025923	-0.8715611	0	-1.5623523e-16	-1.5719785e-16	4.2	100
0	-0.48151943	-0.87642	0	-1.5623521e-16	-1.5719788e-16	4.21	100
0	-0.47273135	-0.8811913	0	-1.5623521e-16	-1.5719788e-16	4.22	100
0	-0.463896	-0.8858745	0	-1.562352e-16	-1.5719789e-16	4.23	100
0	-0.45501438	-0.89046913	0	-1.5623521e-16	-1.5719792e-16	4.24	100
0	-0.44608712	-0.8949746	0	-1.5623521e-16	-1.5719793e-16	4.25	100
0	-0.43711537	-0.8993907	0	-1.5623517e-16	-1.571979e-16	4.26	100
0	-0.4280998	-0.90371686	0	-1.5623517e-16	-1.5719793e-16	4.27	100
0	-0.41904145	-0.9079527	0	-1.5623516e-16	-1.5719793e-16	4.28	100
0	-0.4099412	-0.91209763	0	-1.5623516e-16	-1.5719796e-16	4.29	100
0	-0.40079996	-0.91615134	0	-1.5623513e-16	-1.5719793e-16	4.3	100
0	-0.39161855	-0.92011356	0	-1.5623513e-16	-1.5719797e-16	4.31	100
0	-0.38239795	-0.9239837	0	-1.5623512e-16	-1.5719797e-16	4.32	100
0	-0.37313923	-0.9277614	0	-1.5623512e-16	-1.5719799e-16	4.33	100
0	-0.36384308	-0.9314465	0	-1.562351e-16	-1.5719799e-16	4.34	100
0	-0.35451064	-0.9350382	0	-1.5623508e-16	-1.57198e-16	4.35	100
0	-0.34514266	-0.93853676	0	-1.5623508e-16	-1.57198e-16	4.36	100
0	-0.33574015	-0.94194126	0	-1.5623507e-16	-1.5719801e-16	4.37	100
0	-0.32630408	-0.9452515	0	-1.5623506e-16	-1.5719801e-16	4.38	100
0	-0.31683537	-0.9484673	0	-1.5623506e-16	-1.5719803e-16	4.39	100
0	-0.30733493	-0.95158833	0	-1.5623504e-16	-1.5719804e-16	4.4	100
0	-0.29780373	-0.95461404	0	-1.5623504e-16	-1.5719805e-16	4.41	100
0	-0.28824282	-0.9575444	0	-1.5623503e-16	-1.5719805e-16	4.42	100
0	-0.278653	-0.960379	0	-1.5623502e-16	-1.5719805e-16	4.43	100
0	-0.26903534	-0.96311754	0	-1.5623502e-16	-1.5719807e-16	4.44	100
0	-0.25939077	-0.96575975	0	-1.5623502e-16	-1.5719809e-16	4.45	100
0	-0.24972026	-0.9683054	0	-1.56235e-16	-1.5719809e-16	4.46	100
0	-0.24002476	-0.9707542	0	-1.5623498e-16	-1.5719808e-16	4.47	100
0	-0.23030522	-0.973106	0	-1.5623496e-16	-1.5719808e-16	4.48	100
0	-0.22056268	-0.97536045	0	-1.5623498e-16	-1.571981e-16	4.49	100
0	-0.21079808	-0.97751725	0	-1.5623496e-16	-1.571981e-16	4.5	100
0	-0.20101234	-0.9795764	0	-1.5623494e-16	-1.571981e-16	4.51	100
0	-0.19120654	-0.98153764	0	-1.5623492e-16	-1.571981e-16	4.52	100
0	-0.18138155	-0.9834007	0	-1.5623494e-16	-1.5719813e-16	4.53	100
0	-0.17153846	-0.9851653	0	-1.5623492e-16	-1.5719813e-16	4.54	100
0	-0.16167818	-0.9868314	0	-1.5623492e-16	-1.5719813e-16	4.55	100
0	-0.15180176	-0.9883989	0	-1.5623491e-16	-1.5719813e-16	4.56	100
0	-0.14191014	-0.98986757	0	-1.562349e-16	-1.5719814e-16	4.57	100
0	-0.13200432	-0.9912373	0	-1.5623491e-16	-1.5719813e-16	4.58	100
0	-0.122085266	-0.99250776	0	-1.5623491e-16	-1.5719816e-16	4.59	100
0	-0.11215406	-0.9936789	0	-1.5623488e-16	-1.5719816e-16	4.6	100
0	-0.10221158	-0.9947509	0	-1.562349e-16	-1.5719816e-16	4.61	100
0	-0.09225888	-0.9957233	0	-1.5623487e-16	-1.5719816e-16	4.62	100