# t (s)	mx ()	my ()	mz ()	E_total (J)	E_Zeeman (J)	Angle (rad)	Roundness ()	Size (nm)	Cell_size (m)	Volume (m^3)
0	0.9945174	-1.7542423e-08	0	6.3327283e-19	-3.1442658e-19	0	1	100	2e-09	3.952e-23
0	0.9935568	0.043190874	0	6.3319844e-19	-3.143634e-19	0.024543693	1	100	2e-09	3.952e-23
0	0.990795	0.08499023	0	6.3298166e-19	-3.1419098e-19	0.049087387	1	100	2e-09	3.952e-23
0	0.9865759	0.12404766	0	6.3263797e-19	-3.139558e-19	0.07363108	1	100	2e-09	3.952e-23
0	0.981192	0.16052315	0	6.321877e-19	-3.136944e-19	0.09817477	1	100	2e-09	3.952e-23
0	0.9749905	0.19408503	0	6.316522e-19	-3.1344616e-19	0.12271846	1	100	2e-09	3.952e-23
0	0.96815425	0.22520718	0	6.310506e-19	-3.1322608e-19	0.14726216	1	100	2e-09	3.952e-23
0	0.96084565	0.25413734	0	6.3039905e-19	-3.1304506e-19	0.17180584	1	100	2e-09	3.952e-23
0	0.9531385	0.2812709	0	6.2971166e-19	-3.1290278e-19	0.19634955	1	100	2e-09	3.952e-23
0	0.945112	0.3068154	0	6.2900086e-19	-3.127997e-19	0.22089323	1	100	2e-09	3.952e-23
0	0.9368154	0.3309784	0	6.2827614e-19	-3.127333e-19	0.24543692	1	100	2e-09	3.952e-23
0	0.92826396	0.35398442	0	6.2754657e-19	-3.126983e-19	0.2699806	1	100	2e-09	3.952e-23
0	0.9194733	0.37598956	0	6.2681865e-19	-3.1269017e-19	0.2945243	1	100	2e-09	3.952e-23
0	0.91044635	0.39713776	0	6.260991e-19	-3.1270413e-19	0.319068	1	100	2e-09	3.952e-23
0	0.9012451	0.41741076	0	6.2539337e-19	-3.1274027e-19	0.3436117	1	100	2e-09	3.952e-23
0	0.8918149	0.43702936	0	6.247061e-19	-3.1279023e-19	0.3681554	1	100	2e-09	3.952e-23
0	0.8821989	0.45598	0	6.2404113e-19	-3.128534e-19	0.3926991	1	100	2e-09	3.952e-23
0	0.8723262	0.4744615	0	6.234021e-19	-3.1292268e-19	0.41724277	1	100	2e-09	3.952e-23
0	0.86242056	0.4921211	0	6.2279245e-19	-3.1300716e-19	0.44178647	1	100	2e-09	3.952e-23
0	0.85227835	0.50938046	0	6.222147e-19	-3.130929e-19	0.46633017	1	100	2e-09	3.952e-23
0	0.84188175	0.5262934	0	6.216713e-19	-3.1317748e-19	0.49087384	1	100	2e-09	3.952e-23
0	0.8313585	0.54268295	0	6.211642e-19	-3.132645e-19	0.5154175	1	100	2e-09	3.952e-23
0	0.82059443	0.5587547	0	6.2069596e-19	-3.133476e-19	0.5399612	1	100	2e-09	3.952e-23
0	0.8096656	0.57441485	0	6.2026743e-19	-3.1342822e-19	0.5645049	1	100	2e-09	3.952e-23
0	0.79843307	0.5898743	0	6.1988047e-19	-3.135009e-19	0.5890486	1	100	2e-09	3.952e-23
0	0.78711045	0.6048545	0	6.1953626e-19	-3.1357052e-19	0.6135923	1	100	2e-09	3.952e-23
0	0.7755915	0.61951756	0	6.192361e-19	-3.1363295e-19	0.638136	1	100	2e-09	3.952e-23
0	0.7639357	0.63380337	0	6.1898023e-19	-3.1368821e-19	0.6626797	1	100	2e-09	3.952e-23
0	0.7519446	0.64795923	0	6.187703e-19	-3.1373247e-19	0.6872234	1	100	2e-09	3.952e-23
0	0.7398008	0.66177124	0	6.186064e-19	-3.137682e-19	0.7117671	1	100	2e-09	3.952e-23
0	0.72744286	0.6753187	0	6.184889e-19	-3.1379383e-19	0.7363108	1	100	2e-09	3.952e-23
0	0.71486735	0.6886091	0	6.184184e-19	-3.138092e-19	0.7608545	1	100	2e-09	3.952e-23
0	0.70186687	0.7018559	0	6.1839516e-19	-3.138147e-19	0.7853982	1	100	2e-09	3.952e-23
0	0.994544	-1.8631203e-08	0	6.3166055e-19	-3.1188902e-19	0	0.99	100	2e-09	3.92e-23
0	0.9938038	0.038000945	0	6.3160704e-19	-3.1185541e-19	0.024543693	0.99	100	2e-09	3.92e-23
0	0.99162483	0.07544239	0	6.314488e-19	-3.1175985e-19	0.049087387	0.99	100	2e-09	3.92e-23
0	0.9881397	0.11166574	0	6.3119376e-19	-3.116171e-19	0.07363108	0.99	100	2e-09	3.92e-23
0	0.9835559	0.14612834	0	6.3085296e-19	-3.1144958e-19	0.09817477	0.99	100	2e-09	3.92e-23
0	0.97806424	0.17874958	0	6.304385e-19	-3.1127608e-19	0.12271846	0.99	100	2e-09	3.92e-23
0	0.97182333	0.20960373	0	6.299636e-19	-3.111101e-19	0.14726216	0.99	100	2e-09	3.92e-23
0	0.9649782	0.23874639	0	6.2944066e-19	-3.10962e-19	0.17180584	0.99	100	2e-09	3.92e-23
0	0.95763886	0.26630685	0	6.2888045e-19	-3.108378e-19	0.19634955	0.99	100	2e-09	3.92e-23
0	0.949874	0.29247758	0	6.28293e-19	-3.1073885e-19	0.22089323	0.99	100	2e-09	3.92e-23
0	0.94173396	0.31742543	0	6.276879e-19	-3.1066453e-19	0.24543692	0.99	100	2e-09	3.92e-23
0	0.9332957	0.3411839	0	6.270722e-19	-3.1061643e-19	0.2699806	0.99	100	2e-09	3.92e-23
0	0.9245532	0.36398134	0	6.26453e-19	-3.1058962e-19	0.2945243	0.99	100	2e-09	3.92e-23
0	0.91546714	0.38605973	0	6.258367e-19	-3.105774e-19	0.319068	0.99	100	2e-09	3.92e-23
0	0.90627635	0.4069869	0	6.252282e-19	-3.105922e-19	0.3436117	0.99	100	2e-09	3.92e-23
0	0.896769	0.42736548	0	6.2463205e-19	-3.1061635e-19	0.3681554	0.99	100	2e-09	3.92e-23
0	0.8870453	0.44705296	0	6.240528e-19	-3.1065308e-19	0.3926991	0.99	100	2e-09	3.92e-23
0	0.8771162	0.46610326	0	6.2349406e-19	-3.1070005e-19	0.41724277	0.99	100	2e-09	3.92e-23
0	0.8669341	0.48466262	0	6.229585e-19	-3.107523e-19	0.44178647	0.99	100	2e-09	3.92e-23
0	0.85658574	0.5026235	0	6.2244984e-19	-3.108116e-19	0.46633017	0.99	100	2e-09	3.92e-23
0	0.846037	0.5200929	0	6.2196987e-19	-3.1087422e-19	0.49087384	0.99	100	2e-09	3.92e-23
0	0.8352271	0.5372004	0	6.215211e-19	-3.1093603e-19	0.5154175	0.99	100	2e-09	3.92e-23
0	0.8242621	0.55380726	0	6.2110557e-19	-3.109993e-19	0.5399612	0.99	100	2e-09	3.92e-23
0	0.8129219	0.57026076	0	6.2072466e-19	-3.110561e-19	0.5645049	0.99	100	2e-09	3.92e-23
0	0.80150753	0.5861423	0	6.2038013e-19	-3.1111392e-19	0.5890486	0.99	100	2e-09	3.92e-23
0	0.789881	0.60167307	0	6.200735e-19	-3.1116736e-19	0.6135923	0.99	100	2e-09	3.92e-23
0	0.77804226	0.6168677	0	6.1980555e-19	-3.1121567e-19	0.638136	0.99	100	2e-09	3.92e-23
0	0.7659878	0.6317424	0	6.1957715e-19	-3.1125793e-19	0.6626797	0.99	100	2e-09	3.92e-23
0	0.753829	0.64617795	0	6.1938933e-19	-3.1129464e-19	0.6872234	0.99	100	2e-09	3.92e-23
0	0.7411934	0.660614	0	6.1924266e-19	-3.1132119e-19	0.7117671	0.99	100	2e-09	3.92e-23
0	0.7286137	0.6744502	0	6.191379e-19	-3.1134217e-19	0.7363108	0.99	100	2e-09	3.92e-23
0	0.7154763	0.6883632	0	6.190746e-19	-3.1135337e-19	0.7608545	0.99	100	2e-09	3.92e-23
0	0.702056	0.7020462	0	6.190539e-19	-3.113578e-19	0.7853982	0.99	100	2e-09	3.92e-23
0	0.9941507	-1.2665605e-08	0	6.2590157e-19	-3.098569e-19	0	0.98	100	2e-09	3.896e-23
0	0.9936658	0.030822797	0	6.258762e-19	-3.0984823e-19	0.024543693	0.98	100	2e-09	3.896e-23
0	0.9922208	0.06148807	0	6.2580127e-19	-3.0982324e-19	0.049087387	0.98	100	2e-09	3.896e-23
0	0.9898634	0.091608286	0	6.2568e-19	-3.0978508e-19	0.07363108	0.98	100	2e-09	3.896e-23
0	0.9866604	0.12100721	0	6.2551594e-19	-3.0973835e-19	0.09817477	0.98	100	2e-09	3.896e-23
0	0.98269117	0.1495517	0	6.253151e-19	-3.0968758e-19	0.12271846	0.98	100	2e-09	3.896e-23
0	0.9780336	0.17718573	0	6.250831e-19	-3.0963738e-19	0.14726216	0.98	100	2e-09	3.896e-23
0	0.9727546	0.20392378	0	6.248264e-19	-3.0959065e-19	0.17180584	0.98	100	2e-09	3.896e-23
0	0.966908	0.22981498	0	6.2455047e-19	-3.0954926e-19	0.19634955	0.98	100	2e-09	3.896e-23
0	0.96056175	0.25482866	0	6.242611e-19	-3.0951553e-19	0.22089323	0.98	100	2e-09	3.896e-23
0	0.9537569	0.27903128	0	6.239633e-19	-3.094898e-19	0.24543692	0.98	100	2e-09	3.896e-23
0	0.9465091	0.30253837	0	6.2366146e-19	-3.0947135e-19	0.2699806	0.98	100	2e-09	3.896e-23
0	0.93884075	0.3254085	0	6.2335985e-19	-3.094595e-19	0.2945243	0.98	100	2e-09	3.896e-23
0	0.9307799	0.3476662	0	6.2306185e-19	-3.0945403e-19	0.319068	0.98	100	2e-09	3.896e-23
0	0.92233616	0.36937258	0	6.227701e-19	-3.09454e-19	0.3436117	0.98	100	2e-09	3.896e-23
0	0.913409	0.39082882	0	6.2248815e-19	-3.094551e-19	0.3681554	0.98	100	2e-09	3.896e-23
0	0.9042514	0.41149035	0	6.2221756e-19	-3.0946393e-19	0.3926991	0.98	100	2e-09	3.896e-23
0	0.8945751	0.43205076	0	6.2195964e-19	-3.0947148e-19	0.41724277	0.98	100	2e-09	3.896e-23
0	0.8846763	0.45191368	0	6.217167e-19	-3.0948446e-19	0.44178647	0.98	100	2e-09	3.896e-23
0	0.8743098	0.4716059	0	6.2148954e-19	-3.0949642e-19	0.46633017	0.98	100	2e-09	3.896e-23
0	0.8635412	0.4910033	0	6.212788e-19	-3.0950844e-19	0.49087384	0.98	100	2e-09	3.896e-23
0	0.85236824	0.51011753	0	6.2108505e-19	-3.0952026e-19	0.5154175	0.98	100	2e-09	3.896e-23
0	0.84085286	0.52885514	0	6.2090886e-19	-3.0953233e-19	0.5399612	0.98	100	2e-09	3.896e-23
0	0.82885593	0.54744256	0	6.2075035e-19	-3.0954262e-19	0.5645049	0.98	100	2e-09	3.896e-23
0	0.816364	0.5658835	0	6.2060947e-19	-3.0955117e-19	0.5890486	0.98	100	2e-09	3.896e-23
0	0.80371594	0.58369374	0	6.204862e-19	-3.0956102e-19	0.6135923	0.98	100	2e-09	3.896e-23
0	0.7905113	0.60144526	0	6.203801e-19	-3.095684e-19	0.638136	0.98	100	2e-09	3.896e-23
0	0.77673215	0.61912936	0	6.20291e-19	-3.0957364e-19	0.6626797	0.98	100	2e-09	3.896e-23
0	0.76269805	0.6363316	0	6.2021883e-19	-3.0957868e-19	0.6872234	0.98	100	2e-09	3.896e-23
0	0.7482622	0.65324146	0	6.201632e-19	-3.0958253e-19	0.7117671	0.98	100	2e-09	3.896e-23
0	0.73341435	0.66986614	0	6.201236e-19	-3.0958511e-19	0.7363108	0.98	100	2e-09	3.896e-23
0	0.7181968	0.68615484	0	6.201001e-19	-3.0958661e-19	0.7608545	0.98	100	2e-09	3.896e-23
0	0.7023662	0.70235395	0	6.200925e-19	-3.0958775e-19	0.7853982	0.98	100	2e-09	3.896e-23
0	0.9940782	-2.1988814e-08	0	6.2423805e-19	-3.085619e-19	0	0.97	100	2e-09	3.88e-23
0	0.99366546	0.028480453	0	6.2422187e-19	-3.085578e-19	0.024543693	0.97	100	2e-09	3.88e-23
0	0.99242955	0.056923598	0	6.24174e-19	-3.0854605e-19	0.049087387	0.97	100	2e-09	3.88e-23
0	0.99040186	0.08497105	0	6.240958e-19	-3.0852805e-19	0.07363108	0.97	100	2e-09	3.88e-23
0	0.98760235	0.1127093	0	6.2398995e-19	-3.0850476e-19	0.09817477	0.97	100	2e-09	3.88e-23
0	0.9840915	0.13986143	0	6.2385946e-19	-3.0847907e-19	0.12271846	0.97	100	2e-09	3.88e-23
0	0.9799209	0.1663734	0	6.23708e-19	-3.0845283e-19	0.14726216	0.97	100	2e-09	3.88e-23
0	0.9751235	0.19230735	0	6.235395e-19	-3.084273e-19	0.17180584	0.97	100	2e-09	3.88e-23
0	0.96974	0.21765174	0	6.2335747e-19	-3.0840367e-19	0.19634955	0.97	100	2e-09	3.88e-23
0	0.9638145	0.24238113	0	6.23166e-19	-3.08383e-19	0.22089323	0.97	100	2e-09	3.88e-23
0	0.95737875	0.26652062	0	6.229679e-19	-3.083658e-19	0.24543692	0.97	100	2e-09	3.88e-23
0	0.9504737	0.29005143	0	6.2276717e-19	-3.0835274e-19	0.2699806	0.97	100	2e-09	3.88e-23
0	0.94310236	0.3130726	0	6.2256637e-19	-3.0834287e-19	0.2945243	0.97	100	2e-09	3.88e-23
0	0.9352443	0.335715	0	6.223679e-19	-3.0833542e-19	0.319068	0.97	100	2e-09	3.88e-23
0	0.92699015	0.35778642	0	6.221743e-19	-3.0833165e-19	0.3436117	0.97	100	2e-09	3.88e-23
0	0.91826415	0.3795428	0	6.219867e-19	-3.0832948e-19	0.3681554	0.97	100	2e-09	3.88e-23
0	0.9091021	0.40092474	0	6.2180754e-19	-3.08329e-19	0.3926991	0.97	100	2e-09	3.88e-23
0	0.8995417	0.4218803	0	6.216375e-19	-3.083306e-19	0.41724277	0.97	100	2e-09	3.88e-23
0	0.88952655	0.44255725	0	6.214782e-19	-3.083328e-19	0.44178647	0.97	100	2e-09	3.88e-23
0	0.87908924	0.46290186	0	6.2133e-19	-3.0833576e-19	0.46633017	0.97	100	2e-09	3.88e-23
0	0.8682013	0.4829791	0	6.211933e-19	-3.0833894e-19	0.49087384	0.97	100	2e-09	3.88e-23
0	0.8568822	0.5027589	0	6.210686e-19	-3.0834238e-19	0.5154175	0.97	100	2e-09	3.88e-23
0	0.84515315	0.5222121	0	6.2095596e-19	-3.0834605e-19	0.5399612	0.97	100	2e-09	3.88e-23
0	0.8328977	0.5415262	0	6.208555e-19	-3.0834876e-19	0.5645049	0.97	100	2e-09	3.88e-23
0	0.82023925	0.5605	0	6.207669e-19	-3.083517e-19	0.5890486	0.97	100	2e-09	3.88e-23
0	0.80699503	0.57939506	0	6.2068986e-19	-3.0835357e-19	0.6135923	0.97	100	2e-09	3.88e-23
0	0.79341006	0.597854	0	6.206242e-19	-3.083558e-19	0.638136	0.97	100	2e-09	3.88e-23
0	0.77938145	0.6160242	0	6.2056966e-19	-3.083576e-19	0.6626797	0.97	100	2e-09	3.88e-23
0	0.7648987	0.6339126	0	6.205257e-19	-3.0835903e-19	0.6872234	0.97	100	2e-09	3.88e-23
0	0.7501712	0.65127146	0	6.204918e-19	-3.0836045e-19	0.7117671	0.97	100	2e-09	3.88e-23
0	0.7346352	0.668745	0	6.204682e-19	-3.0836078e-19	0.7363108	0.97	100	2e-09	3.88e-23
0	0.7188736	0.68565863	0	6.2045417e-19	-3.0836117e-19	0.7608545	0.97	100	2e-09	3.88e-23
0	0.7024674	0.7024593	0	6.204496e-19	-3.0836164e-19	0.7853982	0.97	100	2e-09	3.88e-23
0	0.993987	-1.8389283e-08	0	6.221967e-19	-3.0726128e-19	0	0.96	100	2e-09	3.864e-23
0	0.99362373	0.026762841	0	6.221868e-19	-3.0725947e-19	0.024543693	0.96	100	2e-09	3.864e-23
0	0.99252963	0.053615525	0	6.2215754e-19	-3.0725448e-19	0.049087387	0.96	100	2e-09	3.864e-23
0	0.9907139	0.08032179	0	6.2211013e-19	-3.0724626e-19	0.07363108	0.96	100	2e-09	3.864e-23
0	0.9881872	0.10686009	0	6.2204515e-19	-3.0723527e-19	0.09817477	0.96	100	2e-09	3.864e-23
0	0.9849874	0.1330164	0	6.2196403e-19	-3.0722269e-19	0.12271846	0.96	100	2e-09	3.864e-23
0	0.98113406	0.15881988	0	6.218685e-19	-3.0720914e-19	0.14726216	0.96	100	2e-09	3.864e-23
0	0.97664005	0.18431357	0	6.2176065e-19	-3.0719487e-19	0.17180584	0.96	100	2e-09	3.864e-23
0	0.97154266	0.20939997	0	6.2164277e-19	-3.071808e-19	0.19634955	0.96	100	2e-09	3.864e-23
0	0.96586764	0.23406668	0	6.215164e-19	-3.0716737e-19	0.22089323	0.96	100	2e-09	3.864e-23
0	0.9596235	0.25836587	0	6.213839e-19	-3.0715478e-19	0.24543692	0.96	100	2e-09	3.864e-23
0	0.95285267	0.282214	0	6.2124707e-19	-3.0714372e-19	0.2699806	0.96	100	2e-09	3.864e-23
0	0.94555545	0.3056811	0	6.2110795e-19	-3.0713382e-19	0.2945243	0.96	100	2e-09	3.864e-23
0	0.93774337	0.32878265	0	6.2096795e-19	-3.0712518e-19	0.319068	0.96	100	2e-09	3.864e-23
0	0.9294539	0.3514573	0	6.20829e-19	-3.0711815e-19	0.3436117	0.96	100	2e-09	3.864e-23
0	0.92060345	0.37395743	0	6.206917e-19	-3.0711125e-19	0.3681554	0.96	100	2e-09	3.864e-23
0	0.91140544	0.395786	0	6.2055844e-19	-3.0710755e-19	0.3926991	0.96	100	2e-09	3.864e-23
0	0.90168744	0.41739696	0	6.204292e-19	-3.0710393e-19	0.41724277	0.96	100	2e-09	3.864e-23
0	0.89151216	0.4386612	0	6.2030574e-19	-3.0710122e-19	0.44178647	0.96	100	2e-09	3.864e-23
0	0.8808614	0.45963138	0	6.201888e-19	-3.0709905e-19	0.46633017	0.96	100	2e-09	3.864e-23
0	0.8697633	0.4802635	0	6.200787e-19	-3.070975e-19	0.49087384	0.96	100	2e-09	3.864e-23
0	0.85820925	0.5005847	0	6.19976e-19	-3.070965e-19	0.5154175	0.96	100	2e-09	3.864e-23
0	0.84627515	0.52047724	0	6.1988165e-19	-3.0709623e-19	0.5399612	0.96	100	2e-09	3.864e-23
0	0.8338336	0.5401603	0	6.197955e-19	-3.070958e-19	0.5645049	0.96	100	2e-09	3.864e-23
0	0.82085156	0.5596698	0	6.197181e-19	-3.0709496e-19	0.5890486	0.96	100	2e-09	3.864e-23
0	0.8075562	0.578671	0	6.1964973e-19	-3.0709502e-19	0.6135923	0.96	100	2e-09	3.864e-23
0	0.7938287	0.5973488	0	6.1959e-19	-3.0709507e-19	0.638136	0.96	100	2e-09	3.864e-23
0	0.7796682	0.61570495	0	6.195397e-19	-3.0709517e-19	0.6626797	0.96	100	2e-09	3.864e-23
0	0.76509964	0.6337082	0	6.194984e-19	-3.0709527e-19	0.6872234	0.96	100	2e-09	3.864e-23
0	0.7501071	0.65137833	0	6.1946646e-19	-3.0709533e-19	0.7117671	0.96	100	2e-09	3.864e-23
0	0.7347088	0.6686935	0	6.194438e-19	-3.070954e-19	0.7363108	0.96	100	2e-09	3.864e-23
0	0.71892285	0.6856342	0	6.1943027e-19	-3.0709535e-19	0.7608545	0.96	100	2e-09	3.864e-23
0	0.702483	0.7024709	0	6.1942614e-19	-3.07096e-19	0.7853982	0.96	100	2e-09	3.864e-23
0	0.993987	-2.0446675e-08	0	6.221968e-19	-3.0726125e-19	0	0.95	100	2e-09	3.864e-23
0	0.9936221	0.026820159	0	6.221867e-19	-3.0725944e-19	0.024543693	0.95	100	2e-09	3.864e-23
0	0.9925259	0.05368458	0	6.2215775e-19	-3.0725433e-19	0.049087387	0.95	100	2e-09	3.864e-23
0	0.9907083	0.080390744	0	6.221101e-19	-3.0724605e-19	0.07363108	0.95	100	2e-09	3.864e-23
0	0.9881859	0.10687172	0	6.220449e-19	-3.0723525e-19	0.09817477	0.95	100	2e-09	3.864e-23
0	0.9849858	0.13302687	0	6.219638e-19	-3.072227e-19	0.12271846	0.95	100	2e-09	3.864e-23
0	0.9811327	0.15882818	0	6.218684e-19	-3.0720912e-19	0.14726216	0.95	100	2e-09	3.864e-23
0	0.9766415	0.18430597	0	6.217606e-19	-3.0719492e-19	0.17180584	0.95	100	2e-09	3.864e-23
0	0.97154105	0.20940703	0	6.216429e-19	-3.0718073e-19	0.19634955	0.95	100	2e-09	3.864e-23
0	0.96586543	0.23407562	0	6.215164e-19	-3.0716734e-19	0.22089323	0.95	100	2e-09	3.864e-23
0	0.9596288	0.2583462	0	6.213841e-19	-3.0715483e-19	0.24543692	0.95	100	2e-09	3.864e-23
0	0.95284706	0.28223255	0	6.2124707e-19	-3.0714354e-19	0.2699806	0.95	100	2e-09	3.864e-23
0	0.9455481	0.3057039	0	6.2110795e-19	-3.0713363e-19	0.2945243	0.95	100	2e-09	3.864e-23
0	0.93776745	0.3287137	0	6.209679e-19	-3.0712565e-19	0.319068	0.95	100	2e-09	3.864e-23
0	0.92946416	0.35143033	0	6.208289e-19	-3.071184e-19	0.3436117	0.95	100	2e-09	3.864e-23
0	0.9206703	0.37379345	0	6.206917e-19	-3.071123e-19	0.3681554	0.95	100	2e-09	3.864e-23
0	0.9114078	0.39578053	0	6.205582e-19	-3.0710755e-19	0.3926991	0.95	100	2e-09	3.864e-23
0	0.90169376	0.41738322	0	6.2042925e-19	-3.0710399e-19	0.41724277	0.95	100	2e-09	3.864e-23
0	0.89150333	0.43867904	0	6.203059e-19	-3.0710106e-19	0.44178647	0.95	100	2e-09	3.864e-23
0	0.8808728	0.45960954	0	6.201888e-19	-3.0709918e-19	0.46633017	0.95	100	2e-09	3.864e-23
0	0.86978567	0.48022312	0	6.200787e-19	-3.0709776e-19	0.49087384	0.95	100	2e-09	3.864e-23
0	0.85824645	0.50052077	0	6.1997616e-19	-3.0709683e-19	0.5154175	0.95	100	2e-09	3.864e-23
0	0.8461497	0.52068067	0	6.1988155e-19	-3.0709538e-19	0.5399612	0.95	100	2e-09	3.864e-23
0	0.83383656	0.54015565	0	6.197954e-19	-3.0709584e-19	0.5645049	0.95	100	2e-09	3.864e-23
0	0.8209977	0.5594555	0	6.197182e-19	-3.0709571e-19	0.5890486	0.95	100	2e-09	3.864e-23
0	0.8075536	0.5786746	0	6.1964953e-19	-3.0709504e-19	0.6135923	0.95	100	2e-09	3.864e-23
0	0.793825	0.59735376	0	6.195901e-19	-3.0709507e-19	0.638136	0.95	100	2e-09	3.864e-23
0	0.7796747	0.6156967	0	6.1953967e-19	-3.070952e-19	0.6626797	0.95	100	2e-09	3.864e-23
0	0.76509744	0.63371086	0	6.1949857e-19	-3.0709533e-19	0.6872234	0.95	100	2e-09	3.864e-23
0	0.75010616	0.6513795	0	6.1946657e-19	-3.0709533e-19	0.7117671	0.95	100	2e-09	3.864e-23
0	0.73471195	0.66869	0	6.194439e-19	-3.070954e-19	0.7363108	0.95	100	2e-09	3.864e-23
0	0.718922	0.68563503	0	6.1943017e-19	-3.0709538e-19	0.7608545	0.95	100	2e-09	3.864e-23
0	0.70248413	0.7024699	0	6.194261e-19	-3.0709602e-19	0.7853982	0.95	100	2e-09	3.864e-23
0	0.993933	-2.2543428e-08	0	6.2073246e-19	-3.0597235e-19	0	0.94	100	2e-09	3.848e-23
0	0.9936136	0.0251261	0	6.207292e-19	-3.0597173e-19	0.024543693	0.94	100	2e-09	3.848e-23
0	0.99265105	0.050343078	0	6.207194e-19	-3.059701e-19	0.049087387	0.94	100	2e-09	3.848e-23
0	0.9910521	0.07544858	0	6.2070346e-19	-3.0596744e-19	0.07363108	0.94	100	2e-09	3.848e-23
0	0.98882425	0.100420095	0	6.206819e-19	-3.0596395e-19	0.09817477	0.94	100	2e-09	3.848e-23
0	0.9859928	0.12511146	0	6.206555e-19	-3.0595994e-19	0.12271846	0.94	100	2e-09	3.848e-23
0	0.98254144	0.14973451	0	6.206256e-19	-3.0595524e-19	0.14726216	0.94	100	2e-09	3.848e-23
0	0.9785116	0.1740529	0	6.205925e-19	-3.0595043e-19	0.17180584	0.94	100	2e-09	3.848e-23
0	0.9738822	0.19824618	0	6.205574e-19	-3.0594534e-19	0.19634955	0.94	100	2e-09	3.848e-23
0	0.96870023	0.2221173	0	6.205217e-19	-3.0594035e-19	0.22089323	0.94	100	2e-09	3.848e-23
0	0.96296406	0.24573255	0	6.204851e-19	-3.059355e-19	0.24543692	0.94	100	2e-09	3.848e-23
0	0.9567059	0.26900923	0	6.2045003e-19	-3.0593094e-19	0.2699806	0.94	100	2e-09	3.848e-23
0	0.94984597	0.29225567	0	6.2041653e-19	-3.059263e-19	0.2945243	0.94	100	2e-09	3.848e-23
0	0.9424671	0.3151932	0	6.2038505e-19	-3.0592194e-19	0.319068	0.94	100	2e-09	3.848e-23
0	0.9345966	0.3377746	0	6.2035615e-19	-3.0591804e-19	0.3436117	0.94	100	2e-09	3.848e-23
0	0.92616975	0.3602021	0	6.2033025e-19	-3.0591437e-19	0.3681554	0.94	100	2e-09	3.848e-23
0	0.9172128	0.38240266	0	6.203078e-19	-3.0591086e-19	0.3926991	0.94	100	2e-09	3.848e-23
0	0.9077367	0.4043545	0	6.2028873e-19	-3.0590768e-19	0.41724277	0.94	100	2e-09	3.848e-23
0	0.8977305	0.4260844	0	6.202729e-19	-3.0590473e-19	0.44178647	0.94	100	2e-09	3.848e-23
0	0.88717127	0.4476348	0	6.202606e-19	-3.0590204e-19	0.46633017	0.94	100	2e-09	3.848e-23
0	0.8761048	0.46890685	0	6.2025135e-19	-3.0589953e-19	0.49087384	0.94	100	2e-09	3.848e-23
0	0.86449856	0.48996022	0	6.202449e-19	-3.058974e-19	0.5154175	0.94	100	2e-09	3.848e-23
0	0.85237527	0.510747	0	6.2024086e-19	-3.0589542e-19	0.5399612	0.94	100	2e-09	3.848e-23
0	0.8396151	0.5314524	0	6.202388e-19	-3.058937e-19	0.5645049	0.94	100	2e-09	3.848e-23
0	0.82636875	0.55181646	0	6.202388e-19	-3.0589237e-19	0.5890486	0.94	100	2e-09	3.848e-23
0	0.8125799	0.5719203	0	6.202398e-19	-3.058912e-19	0.6135923	0.94	100	2e-09	3.848e-23
0	0.7982914	0.5916968	0	6.202419e-19	-3.0589049e-19	0.638136	0.94	100	2e-09	3.848e-23
0	0.7835128	0.611128	0	6.2024427e-19	-3.058898e-19	0.6626797	0.94	100	2e-09	3.848e-23
0	0.76825315	0.63020056	0	6.20247e-19	-3.058891e-19	0.6872234	0.94	100	2e-09	3.848e-23
0	0.75252986	0.6488932	0	6.202495e-19	-3.058888e-19	0.7117671	0.94	100	2e-09	3.848e-23
0	0.73633987	0.6672075	0	6.2025146e-19	-3.058886e-19	0.7363108	0.94	100	2e-09	3.848e-23
0	0.71970534	0.6851167	0	6.2025316e-19	-3.0588834e-19	0.7608545	0.94	100	2e-09	3.848e-23
0	0.70262975	0.702618	0	6.202536e-19	-3.0588831e-19	0.7853982	0.94	100	2e-09	3.848e-23
0	0.993933	-1.6028043e-08	0	6.207325e-19	-3.0597235e-19	0	0.93	100	2e-09	3.848e-23
0	0.99361503	0.025068097	0	6.2072926e-19	-3.0597173e-19	0.024543693	0.93	100	2e-09	3.848e-23
0	0.99265146	0.050336145	0	6.207193e-19	-3.059701e-19	0.049087387	0.93	100	2e-09	3.848e-23
0	0.9910528	0.07543817	0	6.2070356e-19	-3.0596744e-19	0.07363108	0.93	100	2e-09	3.848e-23
0	0.988826	0.10040454	0	6.2068206e-19	-3.0596395e-19	0.09817477	0.93	100	2e-09	3.848e-23
0	0.98599255	0.12511377	0	6.2065553e-19	-3.0595997e-19	0.12271846	0.93	100	2e-09	3.848e-23
0	0.9825399	0.14974467	0	6.2062555e-19	-3.0595524e-19	0.14726216	0.93	100	2e-09	3.848e-23
0	0.97850364	0.17409687	0	6.205924e-19	-3.0595035e-19	0.17180584	0.93	100	2e-09	3.848e-23
0	0.97388244	0.19824488	0	6.2055746e-19	-3.0594536e-19	0.19634955	0.93	100	2e-09	3.848e-23
0	0.96869516	0.22213925	0	6.2052143e-19	-3.0594032e-19	0.22089323	0.93	100	2e-09	3.848e-23
0	0.9629619	0.24574015	0	6.204854e-19	-3.0593544e-19	0.24543692	0.93	100	2e-09	3.848e-23
0	0.9566728	0.269127	0	6.2044993e-19	-3.0593076e-19	0.2699806	0.93	100	2e-09	3.848e-23
0	0.9498381	0.2922811	0	6.204163e-19	-3.059263e-19	0.2945243	0.93	100	2e-09	3.848e-23
0	0.9424698	0.31518495	0	6.203848e-19	-3.05922e-19	0.319068	0.93	100	2e-09	3.848e-23
0	0.934592	0.33778733	0	6.2035604e-19	-3.0591804e-19	0.3436117	0.93	100	2e-09	3.848e-23
0	0.92610127	0.36037746	0	6.203302e-19	-3.0591416e-19	0.3681554	0.93	100	2e-09	3.848e-23
0	0.9172026	0.38242736	0	6.2030786e-19	-3.0591083e-19	0.3926991	0.93	100	2e-09	3.848e-23
0	0.9077267	0.404377	0	6.202887e-19	-3.0590762e-19	0.41724277	0.93	100	2e-09	3.848e-23
0	0.8977168	0.42611334	0	6.202732e-19	-3.0590473e-19	0.44178647	0.93	100	2e-09	3.848e-23
0	0.887184	0.44760934	0	6.202607e-19	-3.05902e-19	0.46633017	0.93	100	2e-09	3.848e-23
0	0.8761151	0.4688875	0	6.2025135e-19	-3.058995e-19	0.49087384	0.93	100	2e-09	3.848e-23
0	0.8645108	0.48993844	0	6.2024474e-19	-3.058974e-19	0.5154175	0.93	100	2e-09	3.848e-23
0	0.8523635	0.51076657	0	6.202409e-19	-3.0589542e-19	0.5399612	0.93	100	2e-09	3.848e-23
0	0.8396167	0.5314499	0	6.202389e-19	-3.0589372e-19	0.5645049	0.93	100	2e-09	3.848e-23
0	0.82636213	0.55182564	0	6.2023884e-19	-3.0589227e-19	0.5890486	0.93	100	2e-09	3.848e-23
0	0.8125789	0.57192206	0	6.2023977e-19	-3.0589118e-19	0.6135923	0.93	100	2e-09	3.848e-23
0	0.79829115	0.5916972	0	6.2024194e-19	-3.0589049e-19	0.638136	0.93	100	2e-09	3.848e-23
0	0.78351164	0.61112887	0	6.2024427e-19	-3.0588968e-19	0.6626797	0.93	100	2e-09	3.848e-23
0	0.76825476	0.6301987	0	6.20247e-19	-3.0588914e-19	0.6872234	0.93	100	2e-09	3.848e-23
0	0.75252223	0.6489009	0	6.2024944e-19	-3.0588857e-19	0.7117671	0.93	100	2e-09	3.848e-23
0	0.73634213	0.66720474	0	6.2025146e-19	-3.0588855e-19	0.7363108	0.93	100	2e-09	3.848e-23
0	0.71970546	0.6851171	0	6.202528e-19	-3.0588852e-19	0.7608545	0.93	100	2e-09	3.848e-23
0	0.7026289	0.7026192	0	6.202535e-19	-3.0588847e-19	0.7853982	0.93	100	2e-09	3.848e-23
0	0.9935295	-1.804609e-08	0	6.13611e-19	-3.0203295e-19	0	0.92	100	2e-09	3.8e-23
0	0.99331146	0.020809494	0	6.1362476e-19	-3.0203096e-19	0.024543693	0.92	100	2e-09	3.8e-23
0	0.9926628	0.041504342	0	6.136659e-19	-3.0202512e-19	0.049087387	0.92	100	2e-09	3.8e-23
0	0.99158347	0.062185597	0	6.137344e-19	-3.0201535e-19	0.07363108	0.92	100	2e-09	3.8e-23
0	0.9900755	0.08282185	0	6.1383104e-19	-3.020015e-19	0.09817477	0.92	100	2e-09	3.8e-23
0	0.9881399	0.10341383	0	6.139551e-19	-3.0198376e-19	0.12271846	0.92	100	2e-09	3.8e-23
0	0.98577	0.124018766	0	6.1410654e-19	-3.0196254e-19	0.14726216	0.92	100	2e-09	3.8e-23
0	0.98298115	0.14450583	0	6.1428604e-19	-3.019372e-19	0.17180584	0.92	100	2e-09	3.8e-23
0	0.9797611	0.16497338	0	6.1449283e-19	-3.019085e-19	0.19634955	0.92	100	2e-09	3.8e-23
0	0.976122	0.18534197	0	6.147277e-19	-3.0187597e-19	0.22089323	0.92	100	2e-09	3.8e-23
0	0.9720478	0.20569667	0	6.1498935e-19	-3.0184069e-19	0.24543692	0.92	100	2e-09	3.8e-23
0	0.96753263	0.22604449	0	6.1527793e-19	-3.018032e-19	0.2699806	0.92	100	2e-09	3.8e-23
0	0.96258366	0.24633491	0	6.1559303e-19	-3.0176327e-19	0.2945243	0.92	100	2e-09	3.8e-23
0	0.95716655	0.2666815	0	6.159334e-19	-3.0172294e-19	0.319068	0.92	100	2e-09	3.8e-23
0	0.9512798	0.28705212	0	6.162985e-19	-3.0168251e-19	0.3436117	0.92	100	2e-09	3.8e-23
0	0.9448814	0.3075449	0	6.166868e-19	-3.016444e-19	0.3681554	0.92	100	2e-09	3.8e-23
0	0.9380036	0.32801497	0	6.1709664e-19	-3.01607e-19	0.3926991	0.92	100	2e-09	3.8e-23
0	0.9305738	0.34863266	0	6.175261e-19	-3.0157405e-19	0.41724277	0.92	100	2e-09	3.8e-23
0	0.92252934	0.369497	0	6.179729e-19	-3.0154885e-19	0.44178647	0.92	100	2e-09	3.8e-23
0	0.9139276	0.39039567	0	6.1843404e-19	-3.015281e-19	0.46633017	0.92	100	2e-09	3.8e-23
0	0.9046117	0.41163534	0	6.1890615e-19	-3.0151928e-19	0.49087384	0.92	100	2e-09	3.8e-23
0	0.8946262	0.43302548	0	6.1938545e-19	-3.0151943e-19	0.5154175	0.92	100	2e-09	3.8e-23
0	0.88366973	0.4550893	0	6.198669e-19	-3.0154112e-19	0.5399612	0.92	100	2e-09	3.8e-23
0	0.87187207	0.4774268	0	6.203453e-19	-3.0157604e-19	0.5645049	0.92	100	2e-09	3.8e-23
0	0.8590366	0.5002792	0	6.20814e-19	-3.016298e-19	0.5890486	0.92	100	2e-09	3.8e-23
0	0.84499663	0.5237706	0	6.2126553e-19	-3.017042e-19	0.6135923	0.92	100	2e-09	3.8e-23
0	0.8297158	0.54777837	0	6.2169153e-19	-3.0179452e-19	0.638136	0.92	100	2e-09	3.8e-23
0	0.8128133	0.57267684	0	6.2208164e-19	-3.0190464e-19	0.6626797	0.92	100	2e-09	3.8e-23
0	0.794371	0.5981027	0	6.2242524e-19	-3.0202073e-19	0.6872234	0.92	100	2e-09	3.8e-23
0	0.77428514	0.6239776	0	6.2271015e-19	-3.021337e-19	0.7117671	0.92	100	2e-09	3.8e-23
0	0.7521407	0.6505709	0	6.2292496e-19	-3.0223564e-19	0.7363108	0.92	100	2e-09	3.8e-23
0	0.72792894	0.6775977	0	6.230589e-19	-3.023072e-19	0.7608545	0.92	100	2e-09	3.8e-23
0	0.70322835	0.703217	0	6.2310476e-19	-3.0233015e-19	0.7853982	0.92	100	2e-09	3.8e-23
0	0.9935295	-1.804609e-08	0	6.1361106e-19	-3.0203295e-19	0	0.91	100	2e-09	3.8e-23
0	0.99331135	0.020817243	0	6.1362476e-19	-3.0203094e-19	0.024543693	0.91	100	2e-09	3.8e-23
0	0.9926625	0.041512202	0	6.13666e-19	-3.0202512e-19	0.049087387	0.91	100	2e-09	3.8e-23
0	0.9915837	0.062181946	0	6.1373457e-19	-3.0201533e-19	0.07363108	0.91	100	2e-09	3.8e-23
0	0.9900767	0.08280735	0	6.1383093e-19	-3.0200147e-19	0.09817477	0.91	100	2e-09	3.8e-23
0	0.98814106	0.103402585	0	6.139548e-19	-3.019837e-19	0.12271846	0.91	100	2e-09	3.8e-23
0	0.98577774	0.12395755	0	6.141067e-19	-3.0196213e-19	0.14726216	0.91	100	2e-09	3.8e-23
0	0.98298264	0.1444957	0	6.14286e-19	-3.0193705e-19	0.17180584	0.91	100	2e-09	3.8e-23
0	0.9797659	0.16494481	0	6.144931e-19	-3.0190823e-19	0.19634955	0.91	100	2e-09	3.8e-23
0	0.9761227	0.18533827	0	6.147275e-19	-3.0187595e-19	0.22089323	0.91	100	2e-09	3.8e-23
0	0.972047	0.20570089	0	6.1498935e-19	-3.0184076e-19	0.24543692	0.91	100	2e-09	3.8e-23
0	0.96753365	0.22603978	0	6.152781e-19	-3.018031e-19	0.2699806	0.91	100	2e-09	3.8e-23
0	0.9625806	0.24634668	0	6.1559283e-19	-3.0176342e-19	0.2945243	0.91	100	2e-09	3.8e-23
0	0.95716065	0.26670283	0	6.159337e-19	-3.0172325e-19	0.319068	0.91	100	2e-09	3.8e-23
0	0.9512747	0.2870691	0	6.162986e-19	-3.0168277e-19	0.3436117	0.91	100	2e-09	3.8e-23
0	0.9448971	0.30749622	0	6.1668677e-19	-3.016436e-19	0.3681554	0.91	100	2e-09	3.8e-23
0	0.9379982	0.3280302	0	6.1709643e-19	-3.016072e-19	0.3926991	0.91	100	2e-09	3.8e-23
0	0.9305586	0.348673	0	6.1752605e-19	-3.0157485e-19	0.41724277	0.91	100	2e-09	3.8e-23
0	0.92254996	0.36944494	0	6.1797283e-19	-3.0154774e-19	0.44178647	0.91	100	2e-09	3.8e-23
0	0.9139101	0.3904371	0	6.1843424e-19	-3.01529e-19	0.46633017	0.91	100	2e-09	3.8e-23
0	0.90459406	0.4116741	0	6.189063e-19	-3.0152013e-19	0.49087384	0.91	100	2e-09	3.8e-23
0	0.89455086	0.43318206	0	6.1938524e-19	-3.0152287e-19	0.5154175	0.91	100	2e-09	3.8e-23
0	0.883682	0.45506525	0	6.198668e-19	-3.015405e-19	0.5399612	0.91	100	2e-09	3.8e-23
0	0.8718731	0.4774249	0	6.203452e-19	-3.01576e-19	0.5645049	0.91	100	2e-09	3.8e-23
0	0.85905147	0.5002535	0	6.20814e-19	-3.016292e-19	0.5890486	0.91	100	2e-09	3.8e-23
0	0.8449845	0.5237906	0	6.212656e-19	-3.0170456e-19	0.6135923	0.91	100	2e-09	3.8e-23
0	0.82967925	0.5478339	0	6.216915e-19	-3.017957e-19	0.638136	0.91	100	2e-09	3.8e-23
0	0.81283826	0.57264125	0	6.2208175e-19	-3.0190397e-19	0.6626797	0.91	100	2e-09	3.8e-23
0	0.79435945	0.59811807	0	6.2242513e-19	-3.0202104e-19	0.6872234	0.91	100	2e-09	3.8e-23
0	0.77428454	0.6239784	0	6.2271015e-19	-3.0213366e-19	0.7117671	0.91	100	2e-09	3.8e-23
0	0.7518981	0.65085185	0	6.229249e-19	-3.022384e-19	0.7363108	0.91	100	2e-09	3.8e-23
0	0.7282459	0.67725664	0	6.2305896e-19	-3.0230549e-19	0.7608545	0.91	100	2e-09	3.8e-23
0	0.7032276	0.7032176	0	6.2310487e-19	-3.023301e-19	0.7853982	0.91	100	2e-09	3.8e-23
0	0.9936507	-1.8051049e-08	0	6.1277783e-19	-2.9952603e-19	0	0.9	100	2e-09	3.768e-23
0	0.99343663	0.020633092	0	6.127924e-19	-2.995239e-19	0.024543693	0.9	100	2e-09	3.768e-23
0	0.99280393	0.04105624	0	6.128357e-19	-2.9951763e-19	0.049087387	0.9	100	2e-09	3.768e-23
0	0.9917458	0.061572153	0	6.12908e-19	-2.995072e-19	0.07363108	0.9	100	2e-09	3.768e-23
0	0.99027157	0.08198209	0	6.13009e-19	-2.9949237e-19	0.09817477	0.9	100	2e-09	3.768e-23
0	0.9883729	0.102411956	0	6.13139e-19	-2.9947353e-19	0.12271846	0.9	100	2e-09	3.768e-23
0	0.9860405	0.12291144	0	6.132974e-19	-2.994514e-19	0.14726216	0.9	100	2e-09	3.768e-23
0	0.9832969	0.1432724	0	6.134838e-19	-2.9942475e-19	0.17180584	0.9	100	2e-09	3.768e-23
0	0.9801134	0.16370067	0	6.136985e-19	-2.993954e-19	0.19634955	0.9	100	2e-09	3.768e-23
0	0.976496	0.18412018	0	6.139407e-19	-2.9936313e-19	0.22089323	0.9	100	2e-09	3.768e-23
0	0.9724454	0.20450702	0	6.1420947e-19	-2.9932797e-19	0.24543692	0.9	100	2e-09	3.768e-23