# t (s)	mx ()	my ()	mz ()	E_total (J)	E_Zeeman (J)	Angle (rad)	Length (nm)
0	0.9999883	-1.1232745e-10	0	-1.5623486e-16	-1.5719817e-16	0	100
0	0.9949923	0.099834785	0	-1.562349e-16	-1.5719817e-16	0.1	100
0	0.9800539	0.19867155	0	-1.5623495e-16	-1.571981e-16	0.2	100
0	0.95532274	0.29552236	0	-1.56235e-16	-1.5719803e-16	0.3	100
0	0.92104656	0.38941926	0	-1.5623513e-16	-1.5719796e-16	0.4	100
0	0.8775678	0.4794243	0	-1.5623524e-16	-1.5719789e-16	0.5	100
0	0.8253217	0.56463826	0	-1.5623532e-16	-1.5719783e-16	0.6	100
0	0.76482993	0.6442103	0	-1.5623535e-16	-1.5719776e-16	0.7	100
0	0.69669706	0.7173456	0	-1.562354e-16	-1.5719779e-16	0.8	100
0	0.6216035	0.78331405	0	-1.5623535e-16	-1.5719779e-16	0.9	100
0	0.54029906	0.8414567	0	-1.562353e-16	-1.5719784e-16	1	100
0	0.45359564	0.8911926	0	-1.562352e-16	-1.571979e-16	1.1	100
0	0.3623592	0.9320248	0	-1.5623511e-16	-1.5719799e-16	1.2	100
0	0.2675011	0.9635448	0	-1.56235e-16	-1.5719807e-16	1.3	100
0	0.1699692	0.9854373	0	-1.5623492e-16	-1.5719812e-16	1.4	100
0	0.070738204	0.99748325	0	-1.5623488e-16	-1.5719817e-16	1.5	100
0	-0.029199947	0.99956197	0	-1.5623487e-16	-1.5719817e-16	1.6	100
0	-0.12884618	0.9916527	0	-1.562349e-16	-1.5719816e-16	1.7	100
0	-0.22720441	0.97383463	0	-1.5623498e-16	-1.571981e-16	1.8	100
0	-0.32329148	0.9462862	0	-1.5623507e-16	-1.5719804e-16	1.9	100
0	-0.41614723	0.9092828	0	-1.5623515e-16	-1.5719793e-16	2	100
0	-0.50484407	0.8631949	0	-1.5623527e-16	-1.5719787e-16	2.1	100
0	-0.58849597	0.8084829	0	-1.5623535e-16	-1.5719781e-16	2.2	100
0	-0.6662676	0.7456937	0	-1.5623537e-16	-1.5719777e-16	2.3	100
0	-0.7373825	0.6754545	0	-1.5623539e-16	-1.5719775e-16	2.4	100
0	-0.8011302	0.5984666	0	-1.5623532e-16	-1.5719779e-16	2.5	100
0	-0.85687435	0.51549894	0	-1.5623529e-16	-1.5719788e-16	2.6	100
0	-0.90405744	0.42738006	0	-1.562352e-16	-1.5719795e-16	2.7	100
0	-0.94220823	0.33499002	0	-1.5623507e-16	-1.5719801e-16	2.8	100
0	-0.9709451	0.23925164	0	-1.5623496e-16	-1.5719807e-16	2.9	100
0	-0.9899803	0.1411218	0	-1.5623491e-16	-1.5719816e-16	3	100
0	-0.99912345	0.041581266	0	-1.5623484e-16	-1.5719816e-16	3.1	100
0	-0.9982831	-0.05837498	0	-1.562349e-16	-1.571982e-16	3.2	100
0	-0.98746747	-0.15774764	0	-1.5623495e-16	-1.5719816e-16	3.3	100
0	-0.96678483	-0.25554338	0	-1.56235e-16	-1.5719809e-16	3.4	100
0	-0.93644255	-0.3507848	0	-1.5623508e-16	-1.5719799e-16	3.5	100
0	-0.8967437	-0.4425202	0	-1.5623517e-16	-1.5719789e-16	3.6	100
0	-0.84808564	-0.52983326	0	-1.5623529e-16	-1.5719784e-16	3.7	100
0	-0.79095465	-0.6118518	0	-1.5623536e-16	-1.571978e-16	3.8	100
0	-0.72592145	-0.68775684	0	-1.562354e-16	-1.5719779e-16	3.9	100
0	-0.6536357	-0.7567906	0	-1.5623536e-16	-1.5719776e-16	4	100
0	-0.5748194	-0.81826335	0	-1.562353e-16	-1.5719779e-16	4.1	100
0	-0.49025923	-0.8715611	0	-1.5623523e-16	-1.5719787e-16	4.2	100
0	-0.40079993	-0.91615134	0	-1.5623513e-16	-1.5719795e-16	4.3	100
0	-0.3073349	-0.95158833	0	-1.5623504e-16	-1.5719803e-16	4.4	100
0	-0.21079808	-0.97751725	0	-1.5623496e-16	-1.571981e-16	4.5	100
0	-0.112154044	-0.993679	0	-1.5623488e-16	-1.5719816e-16	4.6	100
0	-0.012388845	-0.99991155	0	-1.5623487e-16	-1.5719817e-16	4.7	100
0	0.08750019	-0.99615276	0	-1.5623487e-16	-1.5719816e-16	4.8	100
0	0.18651453	-0.98243994	0	-1.5623494e-16	-1.5719812e-16	4.9	100
0	0.28366435	-0.9589107	0	-1.5623502e-16	-1.5719805e-16	5	100
0	0.3779789	-0.92580026	0	-1.5623512e-16	-1.5719797e-16	5.1	100
0	0.46851575	-0.8834401	0	-1.5623523e-16	-1.5719788e-16	5.2	100
0	0.55437046	-0.8322534	0	-1.562353e-16	-1.5719784e-16	5.3	100
0	0.63468575	-0.772752	0	-1.5623536e-16	-1.5719777e-16	5.4	100
0	0.7086597	-0.7055304	0	-1.5623536e-16	-1.5719775e-16	5.5	100
0	0.7755533	-0.6312597	0	-1.5623536e-16	-1.5719779e-16	5.6	100
0	0.8346986	-0.5506818	0	-1.5623527e-16	-1.5719779e-16	5.7	100
0	0.88550484	-0.46460137	0	-1.562352e-16	-1.5719788e-16	5.8	100
0	0.927464	-0.37387788	0	-1.5623513e-16	-1.5719799e-16	5.9	100
0	0.96015674	-0.27941772	0	-1.56235e-16	-1.5719804e-16	6	100
0	0.9832559	-0.18216462	0	-1.5623494e-16	-1.5719813e-16	6.1	100
0	0.99653035	-0.08309057	0	-1.5623487e-16	-1.5719816e-16	6.2	100
0	0.9999862	-4.6529825e-11	0	-1.5296736e-16	-1.5391786e-16	0	95
0	0.99499047	0.099830665	0	-1.5296736e-16	-1.539179e-16	0.1	95
0	0.98005384	0.19866413	0	-1.5296732e-16	-1.5391792e-16	0.2	95
0	0.95532477	0.29551312	0	-1.5296728e-16	-1.5391797e-16	0.3	95
0	0.9210504	0.38941002	0	-1.5296724e-16	-1.5391804e-16	0.4	95
0	0.87757313	0.47941673	0	-1.5296714e-16	-1.5391805e-16	0.5	95
0	0.8253269	0.5646336	0	-1.5296711e-16	-1.5391812e-16	0.6	95
0	0.76483375	0.6442091	0	-1.5296707e-16	-1.5391813e-16	0.7	95
0	0.69669825	0.71734774	0	-1.5296708e-16	-1.5391817e-16	0.8	95
0	0.6216013	0.78331846	0	-1.5296712e-16	-1.5391817e-16	0.9	95
0	0.54029346	0.84146214	0	-1.5296714e-16	-1.5391812e-16	1	95
0	0.45358738	0.8911976	0	-1.5296718e-16	-1.5391805e-16	1.1	95
0	0.36234978	0.93202823	0	-1.5296723e-16	-1.5391801e-16	1.2	95
0	0.26749226	0.96354616	0	-1.5296727e-16	-1.5391793e-16	1.3	95
0	0.16996263	0.98543656	0	-1.5296731e-16	-1.5391788e-16	1.4	95
0	0.07073523	0.9974812	0	-1.5296735e-16	-1.5391786e-16	1.5	95
0	-0.029198706	0.99955976	0	-1.5296735e-16	-1.5391785e-16	1.6	95
0	-0.128841	0.9916513	0	-1.5296732e-16	-1.5391786e-16	1.7	95
0	-0.22719628	0.9738352	0	-1.5296731e-16	-1.5391792e-16	1.8	95
0	-0.32328203	0.94628876	0	-1.5296725e-16	-1.53918e-16	1.9	95
0	-0.41613832	0.9092873	0	-1.529672e-16	-1.5391805e-16	2	95
0	-0.5048372	0.8632001	0	-1.5296715e-16	-1.5391809e-16	2.1	95
0	-0.58849233	0.8084878	0	-1.5296711e-16	-1.5391814e-16	2.2	95
0	-0.6662674	0.7456968	0	-1.5296708e-16	-1.5391816e-16	2.3	95
0	-0.73738533	0.6754546	0	-1.5296707e-16	-1.5391814e-16	2.4	95
0	-0.801135	0.59846336	0	-1.5296712e-16	-1.5391817e-16	2.5	95
0	-0.85687965	0.51549244	0	-1.5296712e-16	-1.5391806e-16	2.6	95
0	-0.90406215	0.42737126	0	-1.5296719e-16	-1.5391805e-16	2.7	95
0	-0.94221115	0.33498052	0	-1.5296723e-16	-1.5391796e-16	2.8	95
0	-0.97094584	0.23924327	0	-1.5296728e-16	-1.5391792e-16	2.9	95
0	-0.9899791	0.14111619	0	-1.5296732e-16	-1.5391788e-16	3	95
0	-0.9991213	0.041579504	0	-1.5296732e-16	-1.5391785e-16	3.1	95
0	-0.998281	-0.058372516	0	-1.5296735e-16	-1.5391786e-16	3.2	95
0	-0.9874666	-0.15774146	0	-1.5296731e-16	-1.5391788e-16	3.3	95
0	-0.96678597	-0.2555347	0	-1.5296728e-16	-1.5391794e-16	3.4	95
0	-0.9364458	-0.35077536	0	-1.5296722e-16	-1.5391797e-16	3.5	95
0	-0.8967486	-0.44251177	0	-1.529672e-16	-1.5391808e-16	3.6	95
0	-0.8480911	-0.52982724	0	-1.5296714e-16	-1.5391812e-16	3.7	95
0	-0.79095924	-0.6118491	0	-1.529671e-16	-1.5391814e-16	3.8	95
0	-0.72592384	-0.68775773	0	-1.5296706e-16	-1.5391814e-16	3.9	95
0	-0.653635	-0.75679415	0	-1.5296708e-16	-1.5391818e-16	4	95
0	-0.57481515	-0.8182685	0	-1.5296712e-16	-1.5391813e-16	4.1	95
0	-0.490252	-0.8715664	0	-1.5296716e-16	-1.5391808e-16	4.2	95
0	-0.40079078	-0.9161556	0	-1.5296722e-16	-1.5391802e-16	4.3	95
0	-0.30732563	-0.9515905	0	-1.5296727e-16	-1.5391797e-16	4.4	95
0	-0.21079035	-0.97751737	0	-1.5296731e-16	-1.5391792e-16	4.5	95
0	-0.11214946	-0.9936775	0	-1.5296733e-16	-1.5391786e-16	4.6	95
0	-0.012388317	-0.9999094	0	-1.5296735e-16	-1.5391786e-16	4.7	95
0	0.08749657	-0.996151	0	-1.5296735e-16	-1.5391786e-16	4.8	95
0	0.18650745	-0.9824397	0	-1.5296731e-16	-1.539179e-16	4.9	95
0	0.2836553	-0.95891243	0	-1.5296727e-16	-1.5391796e-16	5	95
0	0.37796953	-0.9258041	0	-1.5296723e-16	-1.5391801e-16	5.1	95
0	0.4685079	-0.8834451	0	-1.5296718e-16	-1.5391808e-16	5.2	95
0	0.55436546	-0.8322587	0	-1.5296712e-16	-1.5391814e-16	5.3	95
0	0.6346842	-0.7727561	0	-1.5296711e-16	-1.5391814e-16	5.4	95
0	0.7086614	-0.7055319	0	-1.5296707e-16	-1.5391814e-16	5.5	95
0	0.7755574	-0.631258	0	-1.5296711e-16	-1.5391817e-16	5.6	95
0	0.834704	-0.5506767	0	-1.5296714e-16	-1.5391813e-16	5.7	95
0	0.8855099	-0.4645934	0	-1.529672e-16	-1.5391809e-16	5.8	95
0	0.9274677	-0.37386855	0	-1.5296723e-16	-1.5391801e-16	5.9	95
0	0.96015835	-0.2794087	0	-1.529673e-16	-1.5391796e-16	6	95
0	0.9832554	-0.1821577	0	-1.5296731e-16	-1.5391792e-16	6.1	95
0	0.9965283	-0.0830871	0	-1.5296736e-16	-1.5391788e-16	6.2	95
0	0.9999851	-7.5476035e-11	0	-1.5033682e-16	-1.5127777e-16	0	90
0	0.9949898	0.09982871	0	-1.503368e-16	-1.5127777e-16	0.1	90
0	0.98005384	0.19866064	0	-1.503367e-16	-1.5127786e-16	0.2	90
0	0.9553259	0.29550877	0	-1.5033661e-16	-1.5127794e-16	0.3	90
0	0.9210526	0.3894057	0	-1.503365e-16	-1.512781e-16	0.4	90
0	0.8775758	0.47941318	0	-1.5033636e-16	-1.512782e-16	0.5	90
0	0.8253296	0.5646314	0	-1.5033626e-16	-1.5127831e-16	0.6	90
0	0.7648358	0.6442086	0	-1.5033622e-16	-1.5127839e-16	0.7	90
0	0.6966989	0.7173488	0	-1.5033619e-16	-1.5127839e-16	0.8	90
0	0.6216004	0.7833207	0	-1.5033621e-16	-1.5127836e-16	0.9	90
0	0.54029083	0.8414649	0	-1.503363e-16	-1.5127827e-16	1	90
0	0.4535836	0.8912002	0	-1.503364e-16	-1.5127817e-16	1.1	90
0	0.36234528	0.93203	0	-1.5033652e-16	-1.5127803e-16	1.2	90
0	0.26748803	0.9635469	0	-1.5033664e-16	-1.5127791e-16	1.3	90
0	0.16995952	0.9854365	0	-1.5033674e-16	-1.5127781e-16	1.4	90
0	0.07073383	0.9974805	0	-1.503368e-16	-1.5127777e-16	1.5	90
0	-0.029198116	0.9995588	0	-1.5033681e-16	-1.5127777e-16	1.6	90
0	-0.12883854	0.99165094	0	-1.5033677e-16	-1.512778e-16	1.7	90
0	-0.22719243	0.97383547	0	-1.5033669e-16	-1.5127789e-16	1.8	90
0	-0.3232776	0.9462901	0	-1.5033658e-16	-1.5127799e-16	1.9	90
0	-0.41613412	0.90928954	0	-1.5033645e-16	-1.5127813e-16	2	90
0	-0.50483406	0.86320287	0	-1.5033632e-16	-1.5127822e-16	2.1	90
0	-0.5884907	0.80849034	0	-1.5033625e-16	-1.5127832e-16	2.2	90
0	-0.6662675	0.7456985	0	-1.5033619e-16	-1.5127839e-16	2.3	90
0	-0.7373868	0.67545485	0	-1.5033619e-16	-1.5127839e-16	2.4	90
0	-0.80113757	0.5984619	0	-1.5033621e-16	-1.5127832e-16	2.5	90
0	-0.8568824	0.51548946	0	-1.5033632e-16	-1.5127824e-16	2.6	90
0	-0.90406454	0.4273672	0	-1.5033644e-16	-1.5127814e-16	2.7	90
0	-0.94221264	0.33497605	0	-1.5033653e-16	-1.5127797e-16	2.8	90
0	-0.97094625	0.2392393	0	-1.5033669e-16	-1.512779e-16	2.9	90
0	-0.98997873	0.1411135	0	-1.5033677e-16	-1.5127781e-16	3	90
0	-0.9991205	0.041578665	0	-1.5033681e-16	-1.5127776e-16	3.1	90
0	-0.99828017	-0.05837135	0	-1.5033681e-16	-1.5127777e-16	3.2	90
0	-0.9874662	-0.15773854	0	-1.5033677e-16	-1.5127782e-16	3.3	90
0	-0.9667867	-0.25553063	0	-1.5033666e-16	-1.5127791e-16	3.4	90
0	-0.9364474	-0.35077092	0	-1.5033653e-16	-1.5127803e-16	3.5	90
0	-0.89675105	-0.4425077	0	-1.5033642e-16	-1.5127817e-16	3.6	90
0	-0.84809375	-0.5298245	0	-1.5033629e-16	-1.5127826e-16	3.7	90
0	-0.7909616	-0.611848	0	-1.5033621e-16	-1.5127835e-16	3.8	90
0	-0.7259252	-0.68775815	0	-1.5033617e-16	-1.5127839e-16	3.9	90
0	-0.6536348	-0.75679594	0	-1.503362e-16	-1.5127838e-16	4	90
0	-0.5748133	-0.8182709	0	-1.5033626e-16	-1.5127832e-16	4.1	90
0	-0.4902486	-0.8715691	0	-1.5033634e-16	-1.5127822e-16	4.2	90
0	-0.40078652	-0.9161578	0	-1.5033645e-16	-1.5127809e-16	4.3	90
0	-0.30732122	-0.9515918	0	-1.5033658e-16	-1.5127798e-16	4.4	90
0	-0.21078669	-0.9775177	0	-1.503367e-16	-1.5127786e-16	4.5	90
0	-0.11214728	-0.9936769	0	-1.5033678e-16	-1.5127777e-16	4.6	90
0	-0.012388066	-0.9999084	0	-1.5033681e-16	-1.5127776e-16	4.7	90
0	0.087494835	-0.9961502	0	-1.5033678e-16	-1.5127777e-16	4.8	90
0	0.18650413	-0.98243964	0	-1.5033673e-16	-1.5127782e-16	4.9	90
0	0.28365096	-0.9589134	0	-1.5033664e-16	-1.5127794e-16	5	90
0	0.37796515	-0.9258061	0	-1.503365e-16	-1.5127806e-16	5.1	90
0	0.46850425	-0.8834477	0	-1.5033637e-16	-1.5127819e-16	5.2	90
0	0.55436313	-0.8322614	0	-1.5033628e-16	-1.5127831e-16	5.3	90
0	0.6346835	-0.7727581	0	-1.503362e-16	-1.5127836e-16	5.4	90
0	0.7086623	-0.7055327	0	-1.5033619e-16	-1.512784e-16	5.5	90
0	0.77555954	-0.63125724	0	-1.5033621e-16	-1.5127836e-16	5.6	90
0	0.8347067	-0.55067426	0	-1.5033628e-16	-1.5127828e-16	5.7	90
0	0.88551253	-0.46458972	0	-1.5033638e-16	-1.5127818e-16	5.8	90
0	0.9274697	-0.3738641	0	-1.5033649e-16	-1.5127803e-16	5.9	90
0	0.9601593	-0.27940443	0	-1.5033665e-16	-1.5127795e-16	6	90
0	0.9832554	-0.1821544	0	-1.5033673e-16	-1.5127785e-16	6.1	90
0	0.9965276	-0.08308546	0	-1.503368e-16	-1.5127777e-16	6.2	90
0	0.9999827	-7.50822e-11	0	-1.4643082e-16	-1.4735745e-16	0	85
0	0.9949881	0.099824645	0	-1.4643078e-16	-1.473575e-16	0.1	85
0	0.9800535	0.1986533	0	-1.4643064e-16	-1.4735766e-16	0.2	85
0	0.9553277	0.29549962	0	-1.464304e-16	-1.4735787e-16	0.3	85
0	0.9210564	0.38939655	0	-1.4643015e-16	-1.4735811e-16	0.4	85
0	0.87758076	0.47940558	0	-1.464299e-16	-1.4735837e-16	0.5	85
0	0.82533455	0.5646269	0	-1.4642964e-16	-1.4735856e-16	0.6	85
0	0.7648394	0.64420736	0	-1.4642948e-16	-1.4735868e-16	0.7	85
0	0.6966999	0.7173506	0	-1.4642947e-16	-1.4735875e-16	0.8	85
0	0.621598	0.78332496	0	-1.4642955e-16	-1.4735868e-16	0.9	85
0	0.5402852	0.84147	0	-1.4642972e-16	-1.4735853e-16	1	85
0	0.45357537	0.8912049	0	-1.4642993e-16	-1.473583e-16	1.1	85
0	0.3623359	0.9320333	0	-1.4643021e-16	-1.4735804e-16	1.2	85
0	0.26747924	0.9635481	0	-1.4643046e-16	-1.4735779e-16	1.3	85
0	0.16995299	0.98543566	0	-1.4643066e-16	-1.4735758e-16	1.4	85
0	0.0707309	0.99747825	0	-1.4643081e-16	-1.4735747e-16	1.5	85
0	-0.029196883	0.9995563	0	-1.4643082e-16	-1.4735746e-16	1.6	85
0	-0.1288334	0.9916494	0	-1.4643073e-16	-1.4735753e-16	1.7	85
0	-0.22718441	0.9738358	0	-1.4643057e-16	-1.473577e-16	1.8	85
0	-0.32326823	0.9462925	0	-1.464303e-16	-1.4735792e-16	1.9	85
0	-0.41612524	0.9092939	0	-1.4643007e-16	-1.4735819e-16	2	85
0	-0.5048272	0.863208	0	-1.464298e-16	-1.4735843e-16	2.1	85
0	-0.5884869	0.80849516	0	-1.4642959e-16	-1.4735861e-16	2.2	85
0	-0.6662673	0.74570155	0	-1.4642951e-16	-1.4735875e-16	2.3	85
0	-0.7373895	0.675455	0	-1.464295e-16	-1.4735873e-16	2.4	85
0	-0.80114216	0.59845865	0	-1.464296e-16	-1.4735865e-16	2.5	85
0	-0.8568876	0.51548296	0	-1.4642976e-16	-1.4735845e-16	2.6	85
0	-0.9040689	0.42735848	0	-1.4643005e-16	-1.4735824e-16	2.7	85
0	-0.94221526	0.33496663	0	-1.4643029e-16	-1.4735796e-16	2.8	85
0	-0.9709467	0.23923102	0	-1.4643053e-16	-1.4735773e-16	2.9	85
0	-0.98997754	0.14110795	0	-1.4643071e-16	-1.4735755e-16	3	85
0	-0.99911803	0.041576926	0	-1.4643082e-16	-1.4735747e-16	3.1	85
0	-0.9982779	-0.05836891	0	-1.4643082e-16	-1.4735747e-16	3.2	85
0	-0.98746514	-0.15773241	0	-1.4643071e-16	-1.473576e-16	3.3	85
0	-0.96678746	-0.25552204	0	-1.464305e-16	-1.4735778e-16	3.4	85
0	-0.93645036	-0.35076156	0	-1.4643024e-16	-1.47358e-16	3.5	85
0	-0.89675564	-0.44249937	0	-1.4642997e-16	-1.4735824e-16	3.6	85
0	-0.848099	-0.5298185	0	-1.4642972e-16	-1.4735848e-16	3.7	85
0	-0.7909659	-0.6118453	0	-1.4642955e-16	-1.4735865e-16	3.8	85
0	-0.72592735	-0.68775886	0	-1.4642948e-16	-1.4735875e-16	3.9	85
0	-0.65363395	-0.75679934	0	-1.464295e-16	-1.473587e-16	4	85
0	-0.57480896	-0.818276	0	-1.4642963e-16	-1.473586e-16	4.1	85
0	-0.4902414	-0.8715742	0	-1.4642984e-16	-1.4735839e-16	4.2	85
0	-0.40077746	-0.91616166	0	-1.4643009e-16	-1.4735815e-16	4.3	85
0	-0.30731198	-0.95159376	0	-1.4643036e-16	-1.4735789e-16	4.4	85
0	-0.21077904	-0.9775176	0	-1.4643058e-16	-1.4735766e-16	4.5	85
0	-0.11214275	-0.99367523	0	-1.4643075e-16	-1.473575e-16	4.6	85
0	-0.012387543	-0.999906	0	-1.4643083e-16	-1.4735745e-16	4.7	85
0	0.08749124	-0.9961482	0	-1.4643078e-16	-1.4735749e-16	4.8	85
0	0.18649712	-0.9824391	0	-1.4643064e-16	-1.4735762e-16	4.9	85
0	0.283642	-0.95891494	0	-1.4643042e-16	-1.4735783e-16	5	85
0	0.37795585	-0.92580956	0	-1.4643017e-16	-1.473581e-16	5.1	85
0	0.4684964	-0.88345265	0	-1.464299e-16	-1.4735832e-16	5.2	85
0	0.554358	-0.8322665	0	-1.4642967e-16	-1.4735855e-16	5.3	85
0	0.6346819	-0.77276206	0	-1.4642954e-16	-1.473587e-16	5.4	85
0	0.7086638	-0.7055342	0	-1.4642946e-16	-1.473587e-16	5.5	85
0	0.77556354	-0.6312554	0	-1.4642954e-16	-1.473587e-16	5.6	85
0	0.83471185	-0.550669	0	-1.4642968e-16	-1.4735853e-16	5.7	85
0	0.8855174	-0.4645818	0	-1.4642992e-16	-1.4735834e-16	5.8	85
0	0.9274731	-0.37385482	0	-1.4643017e-16	-1.4735807e-16	5.9	85
0	0.96016073	-0.2793955	0	-1.4643041e-16	-1.4735779e-16	6	85
0	0.9832548	-0.18214753	0	-1.4643064e-16	-1.4735761e-16	6.1	85
0	0.9965256	-0.083082035	0	-1.4643078e-16	-1.4735747e-16	6.2	85
0	0.99998105	-1.0284544e-10	0	-1.42523e-16	-1.4343727e-16	0	80
0	0.99498683	0.099821664	0	-1.4252293e-16	-1.4343734e-16	0.1	80
0	0.98005337	0.19864796	0	-1.4252268e-16	-1.4343751e-16	0.2	80
0	0.95532906	0.29549298	0	-1.4252241e-16	-1.4343783e-16	0.3	80
0	0.92105913	0.38938984	0	-1.4252204e-16	-1.4343817e-16	0.4	80
0	0.8775846	0.47940013	0	-1.4252168e-16	-1.434385e-16	0.5	80
0	0.82533836	0.5646235	0	-1.4252137e-16	-1.4343877e-16	0.6	80
0	0.7648422	0.6442065	0	-1.425212e-16	-1.4343895e-16	0.7	80
0	0.6967009	0.7173522	0	-1.4252115e-16	-1.4343901e-16	0.8	80
0	0.62159646	0.78332806	0	-1.4252126e-16	-1.4343894e-16	0.9	80
0	0.5402812	0.8414739	0	-1.4252149e-16	-1.4343873e-16	1	80
0	0.45356944	0.8912086	0	-1.4252179e-16	-1.4343841e-16	1.1	80
0	0.36232916	0.93203586	0	-1.4252215e-16	-1.4343807e-16	1.2	80
0	0.26747286	0.963549	0	-1.425225e-16	-1.4343774e-16	1.3	80
0	0.16994822	0.985435	0	-1.4252278e-16	-1.4343746e-16	1.4	80
0	0.07072874	0.9974769	0	-1.4252295e-16	-1.4343731e-16	1.5	80
0	-0.029195989	0.9995548	0	-1.4252297e-16	-1.4343727e-16	1.6	80
0	-0.12882963	0.99164844	0	-1.4252288e-16	-1.4343739e-16	1.7	80
0	-0.22717857	0.97383606	0	-1.4252264e-16	-1.4343762e-16	1.8	80
0	-0.32326144	0.94629437	0	-1.425223e-16	-1.4343792e-16	1.9	80
0	-0.41611886	0.90929693	0	-1.4252195e-16	-1.4343828e-16	2	80
0	-0.5048223	0.8632119	0	-1.4252158e-16	-1.4343858e-16	2.1	80
0	-0.58848435	0.8084986	0	-1.4252133e-16	-1.4343885e-16	2.2	80
0	-0.6662671	0.74570376	0	-1.4252115e-16	-1.4343898e-16	2.3	80
0	-0.73739153	0.6754553	0	-1.4252117e-16	-1.4343901e-16	2.4	80
0	-0.8011457	0.59845626	0	-1.4252131e-16	-1.4343888e-16	2.5	80
0	-0.85689145	0.5154784	0	-1.4252154e-16	-1.4343862e-16	2.6	80
0	-0.90407217	0.42735213	0	-1.425219e-16	-1.434383e-16	2.7	80
0	-0.94221735	0.3349598	0	-1.4252225e-16	-1.4343795e-16	2.8	80
0	-0.97094727	0.23922502	0	-1.4252257e-16	-1.4343763e-16	2.9	80
0	-0.9899765	0.14110388	0	-1.4252285e-16	-1.4343742e-16	3	80
0	-0.9991164	0.041575644	0	-1.42523e-16	-1.4343729e-16	3.1	80
0	-0.99827635	-0.05836714	0	-1.4252295e-16	-1.4343729e-16	3.2	80
0	-0.98746455	-0.15772793	0	-1.425228e-16	-1.4343743e-16	3.3	80
0	-0.9667883	-0.25551578	0	-1.4252254e-16	-1.4343771e-16	3.4	80
0	-0.9364526	-0.3507547	0	-1.4252219e-16	-1.4343803e-16	3.5	80
0	-0.8967592	-0.4424932	0	-1.4252182e-16	-1.4343835e-16	3.6	80
0	-0.8481029	-0.52981424	0	-1.4252147e-16	-1.4343865e-16	3.7	80
0	-0.79096925	-0.61184335	0	-1.4252127e-16	-1.4343892e-16	3.8	80
0	-0.7259292	-0.6877594	0	-1.4252114e-16	-1.4343901e-16	3.9	80
0	-0.65363336	-0.75680196	0	-1.4252118e-16	-1.4343895e-16	4	80
0	-0.5748059	-0.8182796	0	-1.4252135e-16	-1.4343881e-16	4.1	80
0	-0.49023607	-0.8715781	0	-1.4252164e-16	-1.4343854e-16	4.2	80
0	-0.4007708	-0.9161647	0	-1.4252199e-16	-1.4343821e-16	4.3	80
0	-0.30730522	-0.95159537	0	-1.4252236e-16	-1.4343787e-16	4.4	80
0	-0.2107735	-0.9775176	0	-1.4252266e-16	-1.4343755e-16	4.5	80
0	-0.112139426	-0.9936739	0	-1.425229e-16	-1.4343737e-16	4.6	80
0	-0.012387162	-0.9999043	0	-1.4252298e-16	-1.4343727e-16	4.7	80
0	0.08748861	-0.9961468	0	-1.4252293e-16	-1.4343733e-16	4.8	80
0	0.186492	-0.9824388	0	-1.4252273e-16	-1.434375e-16	4.9	80
0	0.28363544	-0.95891625	0	-1.4252245e-16	-1.4343779e-16	5	80
0	0.37794915	-0.9258122	0	-1.4252208e-16	-1.4343812e-16	5.1	80
0	0.46849075	-0.8834563	0	-1.4252174e-16	-1.4343844e-16	5.2	80
0	0.55435437	-0.8322703	0	-1.4252143e-16	-1.4343877e-16	5.3	80
0	0.6346807	-0.772765	0	-1.4252122e-16	-1.4343895e-16	5.4	80
0	0.7086651	-0.7055353	0	-1.4252115e-16	-1.4343902e-16	5.5	80
0	0.7755665	-0.6312542	0	-1.4252121e-16	-1.4343893e-16	5.6	80
0	0.8347157	-0.5506653	0	-1.4252142e-16	-1.4343873e-16	5.7	80
0	0.885521	-0.46457598	0	-1.4252174e-16	-1.4343845e-16	5.8	80
0	0.9274758	-0.37384805	0	-1.4252212e-16	-1.4343812e-16	5.9	80
0	0.9601618	-0.27938896	0	-1.4252245e-16	-1.4343776e-16	6	80
0	0.9832544	-0.18214251	0	-1.4252277e-16	-1.4343751e-16	6.1	80
0	0.99652416	-0.08307954	0	-1.4252293e-16	-1.4343731e-16	6.2	80
0	0.9999787	5.432715e-11	0	-1.3829675e-16	-1.3919705e-16	0	75
0	0.99498487	0.099818684	0	-1.3829666e-16	-1.3919715e-16	0.1	75
0	0.98005265	0.19864258	0	-1.3829639e-16	-1.3919737e-16	0.2	75
0	0.95532984	0.29548627	0	-1.38296e-16	-1.3919772e-16	0.3	75
0	0.92106146	0.38938302	0	-1.3829557e-16	-1.3919815e-16	0.4	75
0	0.8775878	0.47939453	0	-1.3829514e-16	-1.3919856e-16	0.5	75
0	0.8253416	0.56461984	0	-1.3829474e-16	-1.3919889e-16	0.6	75
0	0.7648445	0.64420533	0	-1.3829449e-16	-1.3919912e-16	0.7	75
0	0.6967013	0.7173532	0	-1.3829446e-16	-1.3919918e-16	0.8	75
0	0.6215946	0.7833307	0	-1.3829457e-16	-1.3919907e-16	0.9	75
0	0.54027694	0.8414771	0	-1.3829487e-16	-1.3919883e-16	1	75
0	0.45356333	0.8912115	0	-1.3829524e-16	-1.3919842e-16	1.1	75
0	0.36232227	0.93203765	0	-1.3829569e-16	-1.3919802e-16	1.2	75
0	0.2674664	0.9635493	0	-1.3829614e-16	-1.3919761e-16	1.3	75
0	0.16994348	0.98543406	0	-1.3829649e-16	-1.3919728e-16	1.4	75
0	0.0707266	0.99747473	0	-1.382967e-16	-1.3919709e-16	1.5	75
0	-0.02919509	0.99955255	0	-1.3829675e-16	-1.3919707e-16	1.6	75
0	-0.12882587	0.99164677	0	-1.3829659e-16	-1.3919719e-16	1.7	75
0	-0.22717267	0.97383577	0	-1.382963e-16	-1.3919748e-16	1.8	75
0	-0.32325462	0.9462957	0	-1.3829589e-16	-1.3919785e-16	1.9	75
0	-0.4161122	0.9092995	0	-1.3829543e-16	-1.3919828e-16	2	75
0	-0.5048172	0.86321515	0	-1.3829499e-16	-1.3919865e-16	2.1	75
0	-0.5884815	0.80850166	0	-1.3829466e-16	-1.3919897e-16	2.2	75
0	-0.66626656	0.7457056	0	-1.382945e-16	-1.3919914e-16	2.3	75
0	-0.7373931	0.675455	0	-1.3829447e-16	-1.3919917e-16	2.4	75
0	-0.80114853	0.59845376	0	-1.3829463e-16	-1.3919901e-16	2.5	75
0	-0.85689485	0.51547337	0	-1.3829496e-16	-1.3919872e-16	2.6	75
0	-0.9040749	0.42734572	0	-1.382954e-16	-1.3919835e-16	2.7	75
0	-0.94221884	0.3349529	0	-1.3829582e-16	-1.3919789e-16	2.8	75
0	-0.9709472	0.23921894	0	-1.3829625e-16	-1.3919749e-16	2.9	75
0	-0.98997515	0.1410998	0	-1.3829656e-16	-1.391972e-16	3	75
0	-0.9991142	0.04157437	0	-1.382967e-16	-1.3919703e-16	3.1	75
0	-0.99827427	-0.05836535	0	-1.3829672e-16	-1.3919708e-16	3.2	75
0	-0.98746336	-0.15772344	0	-1.3829653e-16	-1.3919725e-16	3.3	75
0	-0.9667885	-0.25550944	0	-1.3829618e-16	-1.3919756e-16	3.4	75
0	-0.9364544	-0.3507478	0	-1.3829574e-16	-1.3919797e-16	3.5	75
0	-0.89676213	-0.442487	0	-1.382953e-16	-1.3919838e-16	3.6	75
0	-0.8481061	-0.5298097	0	-1.3829491e-16	-1.3919879e-16	3.7	75
0	-0.790972	-0.61184126	0	-1.3829462e-16	-1.3919907e-16	3.8	75
0	-0.7259305	-0.6877596	0	-1.3829447e-16	-1.391992e-16	3.9	75
0	-0.6536326	-0.75680393	0	-1.382945e-16	-1.3919914e-16	4	75
0	-0.5748026	-0.8182829	0	-1.3829471e-16	-1.3919893e-16	4.1	75
0	-0.49023065	-0.87158126	0	-1.3829508e-16	-1.3919862e-16	4.2	75
0	-0.4007641	-0.91616714	0	-1.3829552e-16	-1.3919819e-16	4.3	75
0	-0.3072984	-0.95159644	0	-1.3829597e-16	-1.3919778e-16	4.4	75
0	-0.21076788	-0.9775171	0	-1.3829635e-16	-1.391974e-16	4.5	75
0	-0.1121361	-0.99367225	0	-1.3829662e-16	-1.3919716e-16	4.6	75
0	-0.012386779	-0.9999021	0	-1.3829672e-16	-1.3919704e-16	4.7	75
0	0.08748597	-0.99614483	0	-1.3829666e-16	-1.3919709e-16	4.8	75
0	0.18648691	-0.98243785	0	-1.3829642e-16	-1.3919732e-16	4.9	75
0	0.28362882	-0.9589167	0	-1.3829605e-16	-1.3919766e-16	5	75
0	0.37794232	-0.9258144	0	-1.3829563e-16	-1.391981e-16	5.1	75
0	0.46848482	-0.88345945	0	-1.3829518e-16	-1.391985e-16	5.2	75
0	0.5543505	-0.83227354	0	-1.382948e-16	-1.3919888e-16	5.3	75
0	0.6346792	-0.77276754	0	-1.3829455e-16	-1.391991e-16	5.4	75
0	0.7086658	-0.705536	0	-1.3829446e-16	-1.391992e-16	5.5	75
0	0.7755691	-0.6312526	0	-1.3829455e-16	-1.391991e-16	5.6	75
0	0.83471894	-0.5506613	0	-1.382948e-16	-1.3919884e-16	5.7	75
0	0.8855242	-0.4645701	0	-1.3829519e-16	-1.3919848e-16	5.8	75
0	0.9274777	-0.37384117	0	-1.3829564e-16	-1.3919806e-16	5.9	75
0	0.9601624	-0.27938235	0	-1.3829608e-16	-1.3919765e-16	6	75
0	0.9832534	-0.18213749	0	-1.3829643e-16	-1.3919729e-16	6.1	75
0	0.9965222	-0.08307702	0	-1.3829667e-16	-1.3919709e-16	6.2	75
0	0.99997735	-7.567342e-11	0	-1.3374951e-16	-1.3463696e-16	0	70
0	0.9949838	0.09981676	0	-1.3374941e-16	-1.3463705e-16	0.1	70
0	0.98005235	0.1986391	0	-1.3374911e-16	-1.346373e-16	0.2	70
0	0.95533055	0.29548192	0	-1.3374867e-16	-1.3463769e-16	0.3	70
0	0.92106307	0.38937867	0	-1.3374822e-16	-1.3463818e-16	0.4	70
0	0.87759	0.47939086	0	-1.3374771e-16	-1.3463863e-16	0.5	70
0	0.8253438	0.5646176	0	-1.3374731e-16	-1.3463901e-16	0.6	70
0	0.764846	0.6442046	0	-1.3374706e-16	-1.3463928e-16	0.7	70
0	0.6967017	0.71735406	0	-1.3374699e-16	-1.3463934e-16	0.8	70
0	0.6215934	0.7833325	0	-1.3374711e-16	-1.346392e-16	0.9	70
0	0.54027426	0.8414794	0	-1.3374743e-16	-1.3463893e-16	1	70
0	0.45355943	0.8912136	0	-1.3374785e-16	-1.346385e-16	1.1	70
0	0.36231786	0.9320389	0	-1.3374836e-16	-1.3463804e-16	1.2	70
0	0.26746222	0.96354973	0	-1.3374882e-16	-1.3463757e-16	1.3	70
0	0.16994046	0.9854334	0	-1.3374922e-16	-1.3463722e-16	1.4	70
0	0.070725225	0.99747354	0	-1.3374944e-16	-1.34637e-16	1.5	70
0	-0.029194515	0.99955106	0	-1.3374948e-16	-1.3463696e-16	1.6	70
0	-0.12882346	0.9916458	0	-1.3374932e-16	-1.3463709e-16	1.7	70
0	-0.22716886	0.9738357	0	-1.33749e-16	-1.3463741e-16	1.8	70
0	-0.32325011	0.94629663	0	-1.3374857e-16	-1.3463786e-16	1.9	70
0	-0.41610804	0.9093014	0	-1.3374806e-16	-1.3463832e-16	2	70
0	-0.504814	0.8632174	0	-1.3374759e-16	-1.3463877e-16	2.1	70
0	-0.58847964	0.80850387	0	-1.3374722e-16	-1.346391e-16	2.2	70
0	-0.6662664	0.74570686	0	-1.3374702e-16	-1.3463931e-16	2.3	70
0	-0.73739433	0.675455	0	-1.33747e-16	-1.3463931e-16	2.4	70
0	-0.8011507	0.59845215	0	-1.3374719e-16	-1.3463914e-16	2.5	70
0	-0.8568972	0.5154703	0	-1.3374756e-16	-1.3463883e-16	2.6	70
0	-0.9040769	0.4273416	0	-1.33748e-16	-1.3463838e-16	2.7	70
0	-0.9422199	0.33494845	0	-1.3374851e-16	-1.3463791e-16	2.8	70
0	-0.97094727	0.23921497	0	-1.3374896e-16	-1.3463746e-16	2.9	70
0	-0.9899742	0.14109719	0	-1.3374931e-16	-1.3463713e-16	3	70
0	-0.99911284	0.041573554	0	-1.3374947e-16	-1.3463696e-16	3.1	70
0	-0.9982729	-0.058364216	0	-1.3374945e-16	-1.3463697e-16	3.2	70
0	-0.98746264	-0.15772061	0	-1.3374926e-16	-1.3463718e-16	3.3	70
0	-0.9667886	-0.2555054	0	-1.3374887e-16	-1.3463751e-16	3.4	70
0	-0.93645555	-0.3507433	0	-1.3374841e-16	-1.3463798e-16	3.5	70
0	-0.89676404	-0.44248298	0	-1.337479e-16	-1.3463845e-16	3.6	70
0	-0.8481085	-0.5298069	0	-1.3374747e-16	-1.3463888e-16	3.7	70
0	-0.790974	-0.6118399	0	-1.3374714e-16	-1.3463918e-16	3.8	70
0	-0.7259314	-0.6877598	0	-1.3374699e-16	-1.3463933e-16	3.9	70
0	-0.65363204	-0.7568055	0	-1.3374702e-16	-1.3463928e-16	4	70
0	-0.5748006	-0.81828505	0	-1.3374727e-16	-1.3463906e-16	4.1	70
0	-0.49022716	-0.87158346	0	-1.3374767e-16	-1.3463868e-16	4.2	70
0	-0.40075982	-0.91616887	0	-1.3374816e-16	-1.3463826e-16	4.3	70
0	-0.307294	-0.95159715	0	-1.3374863e-16	-1.3463777e-16	4.4	70
0	-0.21076429	-0.9775169	0	-1.3374907e-16	-1.3463736e-16	4.5	70
0	-0.112133965	-0.9936712	0	-1.3374937e-16	-1.3463706e-16	4.6	70
0	-0.012386535	-0.99990064	0	-1.337495e-16	-1.3463696e-16	4.7	70
0	0.08748429	-0.99614364	0	-1.3374941e-16	-1.3463703e-16	4.8	70
0	0.1864836	-0.9824375	0	-1.3374915e-16	-1.3463728e-16	4.9	70
0	0.28362453	-0.95891726	0	-1.3374877e-16	-1.3463766e-16	5	70
0	0.37793785	-0.9258158	0	-1.3374829e-16	-1.3463812e-16	5.1	70
0	0.46848112	-0.88346165	0	-1.3374777e-16	-1.3463859e-16	5.2	70
0	0.5543481	-0.8322757	0	-1.3374735e-16	-1.3463896e-16	5.3	70
0	0.63467836	-0.77276915	0	-1.3374707e-16	-1.3463925e-16	5.4	70
0	0.7086664	-0.70553666	0	-1.3374698e-16	-1.3463933e-16	5.5	70
0	0.7755708	-0.63125163	0	-1.3374708e-16	-1.3463924e-16	5.6	70
0	0.8347212	-0.5506588	0	-1.3374736e-16	-1.3463897e-16	5.7	70
0	0.88552636	-0.4645663	0	-1.337478e-16	-1.3463857e-16	5.8	70
0	0.92747915	-0.37383682	0	-1.3374828e-16	-1.3463808e-16	5.9	70
0	0.9601629	-0.27937812	0	-1.3374877e-16	-1.3463763e-16	6	70
0	0.98325294	-0.18213429	0	-1.3374919e-16	-1.3463728e-16	6.1	70
0	0.99652106	-0.08307542	0	-1.3374941e-16	-1.34637e-16	6.2	70
0	0.9999753	-9.79127e-11	0	-1.2848484e-16	-1.293568e-16	0	65
0	0.99498206	0.09981479	0	-1.2848472e-16	-1.293569e-16	0.1	65
0	0.9800513	0.19863558	0	-1.2848443e-16	-1.2935719e-16	0.2	65
0	0.9553305	0.29547754	0	-1.2848398e-16	-1.2935763e-16	0.3	65
0	0.921064	0.38937414	0	-1.2848344e-16	-1.2935813e-16	0.4	65
0	0.8775915	0.47938702	0	-1.284829e-16	-1.2935861e-16	0.5	65
0	0.8253454	0.56461495	0	-1.2848247e-16	-1.2935902e-16	0.6	65
0	0.764847	0.6442036	0	-1.284822e-16	-1.293593e-16	0.7	65
0	0.6967015	0.7173543	0	-1.2848214e-16	-1.2935937e-16	0.8	65
0	0.6215919	0.78333366	0	-1.2848226e-16	-1.2935924e-16	0.9	65
0	0.5402713	0.84148103	0	-1.2848259e-16	-1.2935892e-16	1	65
0	0.45355532	0.8912149	0	-1.2848307e-16	-1.2935849e-16	1.1	65
0	0.3623132	0.9320397	0	-1.284836e-16	-1.2935797e-16	1.2	65
0	0.267458	0.9635494	0	-1.2848411e-16	-1.2935748e-16	1.3	65
0	0.16993727	0.9854321	0	-1.2848454e-16	-1.2935708e-16	1.4	65
0	0.07072381	0.9974716	0	-1.2848476e-16	-1.2935685e-16	1.5	65
0	-0.02919392	0.9995491	0	-1.2848481e-16	-1.2935681e-16	1.6	65
0	-0.12882096	0.99164426	0	-1.2848467e-16	-1.2935698e-16	1.7	65
0	-0.227165	0.97383493	0	-1.2848431e-16	-1.2935731e-16	1.8	65
0	-0.32324558	0.9462968	0	-1.2848383e-16	-1.2935779e-16	1.9	65
0	-0.4161037	0.90930253	0	-1.2848329e-16	-1.2935828e-16	2	65
0	-0.5048105	0.863219	0	-1.2848277e-16	-1.2935875e-16	2.1	65
0	-0.5884775	0.8085053	0	-1.2848238e-16	-1.2935911e-16	2.2	65
0	-0.66626567	0.74570763	0	-1.2848217e-16	-1.2935933e-16	2.3	65
0	-0.7373948	0.6754545	0	-1.2848214e-16	-1.2935933e-16	2.4	65
0	-0.80115193	0.59845006	0	-1.2848234e-16	-1.2935918e-16	2.5	65
0	-0.85689867	0.5154671	0	-1.2848271e-16	-1.2935879e-16	2.6	65
0	-0.9040781	0.42733732	0	-1.2848321e-16	-1.2935834e-16	2.7	65
0	-0.9422202	0.33494395	0	-1.2848374e-16	-1.2935781e-16	2.8	65
0	-0.97094667	0.239211	0	-1.2848426e-16	-1.2935736e-16	2.9	65
0	-0.9899727	0.14109449	0	-1.2848463e-16	-1.29357e-16	3	65
0	-0.99911094	0.0415727	0	-1.2848483e-16	-1.2935683e-16	3.1	65
0	-0.9982709	-0.058363028	0	-1.2848477e-16	-1.2935682e-16	3.2	65
0	-0.98746127	-0.15771762	0	-1.2848456e-16	-1.2935703e-16	3.3	65
0	-0.9667881	-0.2555012	0	-1.2848419e-16	-1.2935746e-16	3.4	65
0	-0.9364562	-0.35073876	0	-1.2848366e-16	-1.2935792e-16	3.5	65