# t (s)	mx ()	my ()	mz ()	E_total (J)	E_Zeeman (J)	Angle (rad)	Length (nm)
0	0.9924671	-4.2352664e-09	0	8.897735e-19	-3.120317e-20	0	100
0	0.7010909	0.70107704	0	8.820568e-19	-3.1172208e-20	0.7853982	100
0	-4.1291e-09	0.99246186	0	8.897692e-19	-3.1203004e-20	1.5707964	100
0	-0.70109	0.70107615	0	8.820567e-19	-3.117217e-20	2.3561945	100
0	-0.99246657	6.2600045e-09	0	8.897736e-19	-3.1203146e-20	3.1415927	100
0	-0.70108604	-0.70107174	0	8.820567e-19	-3.1171985e-20	3.9269907	100
0	3.6722072e-09	-0.99246657	0	8.897692e-19	-3.120315e-20	4.712389	100
0	0.70108956	-0.70107806	0	8.820567e-19	-3.11722e-20	5.497787	100
0	0.9924671	-1.0023211e-08	0	8.897735e-19	-3.120317e-20	6.2831855	100
0	0.99194866	-5.5627645e-09	0	8.730335e-19	-3.053615e-20	0	95
0	0.7018645	0.70185125	0	8.797855e-19	-3.0555486e-20	0.7853982	95
0	-4.0583203e-09	0.99194866	0	8.730304e-19	-3.053615e-20	1.5707964	95
0	-0.7018625	0.7018449	0	8.797854e-19	-3.0555302e-20	2.3561945	95
0	-0.99194884	5.049666e-09	0	8.730334e-19	-3.0536154e-20	3.1415927	95
0	-0.70186526	-0.70185137	0	8.797855e-19	-3.0555506e-20	3.9269907	95
0	1.2711294e-09	-0.99194866	0	8.730304e-19	-3.053615e-20	4.712389	95
0	0.70186	-0.7018474	0	8.797855e-19	-3.0555305e-20	5.497787	95
0	0.9919487	-1.0546599e-08	0	8.730333e-19	-3.053615e-20	6.2831855	95
0	0.9918493	-8.287835e-09	0	8.6282977e-19	-3.0009392e-20	0	90
0	0.7023592	0.7023491	0	8.764439e-19	-3.0052638e-20	0.7853982	90
0	4.611795e-09	0.991849	0	8.628274e-19	-3.000939e-20	1.5707964	90
0	-0.70236045	0.7023474	0	8.764438e-19	-3.005263e-20	2.3561945	90
0	-0.9918495	1.3868876e-08	0	8.628297e-19	-3.00094e-20	3.1415927	90
0	-0.70235896	-0.70234853	0	8.764439e-19	-3.0052622e-20	3.9269907	90
0	-1.9503106e-09	-0.99184906	0	8.6282724e-19	-3.000939e-20	4.712389	90
0	0.70236063	-0.7023458	0	8.764438e-19	-3.00526e-20	5.497787	90
0	0.99184936	-8.851258e-09	0	8.628298e-19	-3.0009395e-20	6.2831855	90
0	0.9914762	-1.2158765e-08	0	8.4569333e-19	-2.922079e-20	0	85
0	0.70325696	0.7032419	0	8.725103e-19	-2.931123e-20	0.7853982	85
0	-2.1356714e-09	0.99147606	0	8.456919e-19	-2.9220785e-20	1.5707964	85
0	-0.70325404	0.7032371	0	8.725102e-19	-2.931107e-20	2.3561945	85
0	-0.991476	1.1831133e-08	0	8.4569354e-19	-2.9220785e-20	3.1415927	85
0	-0.7032567	-0.70324284	0	8.725102e-19	-2.931124e-20	3.9269907	85
0	2.2934197e-09	-0.9914754	0	8.4569183e-19	-2.922077e-20	4.712389	85
0	0.70325434	-0.70323694	0	8.725102e-19	-2.931107e-20	5.497787	85
0	0.991476	-1.0807791e-08	0	8.4569354e-19	-2.9220782e-20	6.2831855	85
0	0.9914324	3.251578e-09	0	8.328619e-19	-2.8442214e-20	0	80
0	0.7042716	0.70426494	0	8.699762e-19	-2.857284e-20	0.7853982	80
0	-2.5264657e-09	0.9914323	0	8.328612e-19	-2.8442214e-20	1.5707964	80
0	-0.7042764	0.7042682	0	8.699761e-19	-2.8573003e-20	2.3561945	80
0	-0.9914324	5.8031837e-08	0	8.3286184e-19	-2.844221e-20	3.1415927	80
0	-0.7042782	-0.7042659	0	8.699761e-19	-2.8572996e-20	3.9269907	80
0	5.4828046e-08	-0.99143225	0	8.328613e-19	-2.844221e-20	4.712389	80
0	0.7042754	-0.70426124	0	8.699762e-19	-2.857284e-20	5.497787	80
0	0.9914322	-7.122514e-08	0	8.3286184e-19	-2.844221e-20	6.2831855	80
0	0.9912903	-1.1807457e-08	0	8.179125e-19	-2.7597524e-20	0	75
0	0.70521945	0.705211	0	8.6415254e-19	-2.7765522e-20	0.7853982	75
0	-5.027001e-09	0.9912906	0	8.1791247e-19	-2.7597527e-20	1.5707964	75
0	-0.70522094	0.70520955	0	8.641525e-19	-2.776553e-20	2.3561945	75
0	-0.99129033	1.4577875e-08	0	8.179126e-19	-2.7597524e-20	3.1415927	75
0	-0.7052215	-0.705209	0	8.6415254e-19	-2.776553e-20	3.9269907	75
0	3.2414307e-09	-0.99129057	0	8.179125e-19	-2.759753e-20	4.712389	75
0	0.70522213	-0.70521414	0	8.6415243e-19	-2.776564e-20	5.497787	75
0	0.99129045	-8.8100975e-09	0	8.179126e-19	-2.7597527e-20	6.2831855	75
0	0.99147046	-8.592737e-09	0	8.065161e-19	-2.6698316e-20	0	70
0	0.70620716	0.70619977	0	8.585029e-19	-2.6893603e-20	0.7853982	70
0	-5.4031095e-09	0.9914657	0	8.0651583e-19	-2.6698188e-20	1.5707964	70
0	-0.70620656	0.7062003	0	8.58503e-19	-2.68936e-20	2.3561945	70
0	-0.99147004	7.187176e-09	0	8.065162e-19	-2.669831e-20	3.1415927	70
0	-0.7062088	-0.70620275	0	8.58503e-19	-2.6893687e-20	3.9269907	70
0	2.4436841e-09	-0.9914691	0	8.0651583e-19	-2.669828e-20	4.712389	70
0	0.70620954	-0.706202	0	8.58503e-19	-2.6893685e-20	5.497787	70
0	0.9914699	-7.1738953e-09	0	8.0651624e-19	-2.6698304e-20	6.2831855	70
0	0.99161285	-1.1717271e-08	0	7.924652e-19	-2.5655007e-20	0	65
0	0.70687413	0.70686835	0	8.476913e-19	-2.586338e-20	0.7853982	65
0	-4.0040535e-09	0.99161255	0	7.9246457e-19	-2.5655e-20	1.5707964	65
0	-0.70687425	0.70686835	0	8.476912e-19	-2.586338e-20	2.3561945	65
0	-0.99161273	8.473481e-09	0	7.924654e-19	-2.5655005e-20	3.1415927	65
0	-0.706874	-0.7068686	0	8.476911e-19	-2.5863385e-20	3.9269907	65
0	7.621064e-09	-0.99161273	0	7.924646e-19	-2.5655005e-20	4.712389	65
0	0.70687395	-0.70686865	0	8.476911e-19	-2.5863387e-20	5.497787	65
0	0.9916128	-9.505595e-09	0	7.924653e-19	-2.5655007e-20	6.2831855	65
0	0.99223804	-1.2571047e-08	0	7.8382487e-19	-2.4544e-20	0	60
0	0.70669365	0.70668256	0	8.3266865e-19	-2.472135e-20	0.7853982	60
0	-5.142154e-09	0.99223787	0	7.838226e-19	-2.4543993e-20	1.5707964	60
0	-0.70669204	0.70668423	0	8.3266865e-19	-2.4721356e-20	2.3561945	60
0	-0.9922379	1.0701173e-08	0	7.8382487e-19	-2.4543998e-20	3.1415927	60
0	-0.7066937	-0.70668256	0	8.3266865e-19	-2.4721356e-20	3.9269907	60
0	7.614435e-09	-0.99223787	0	7.8382265e-19	-2.4543993e-20	4.712389	60
0	0.7066937	-0.7066825	0	8.326687e-19	-2.472135e-20	5.497787	60
0	0.99223775	-7.1758826e-09	0	7.8382477e-19	-2.4543995e-20	6.2831855	60
0	0.99272674	-1.4891024e-08	0	7.732226e-19	-2.3348935e-20	0	55
0	0.7044376	0.70441294	0	8.10574e-19	-2.3430805e-20	0.7853982	55
0	-9.196652e-09	0.9927263	0	7.7321886e-19	-2.3348922e-20	1.5707964	55
0	-0.70443845	0.704412	0	8.105739e-19	-2.3430807e-20	2.3561945	55
0	-0.99272674	1.4860614e-08	0	7.7322254e-19	-2.3348935e-20	3.1415927	55
0	-0.7044382	-0.70441216	0	8.105741e-19	-2.3430807e-20	3.9269907	55
0	1.0187528e-08	-0.9927262	0	7.7321886e-19	-2.334892e-20	4.712389	55
0	0.70443803	-0.7044124	0	8.10574e-19	-2.3430805e-20	5.497787	55
0	0.99272674	-1.13253895e-08	0	7.732225e-19	-2.3348935e-20	6.2831855	55
0	0.9936206	-9.3965475e-09	0	7.649214e-19	-2.203453e-20	0	50
0	0.6989219	0.6988848	0	7.774732e-19	-2.1918727e-20	0.7853982	50
0	-9.904542e-09	0.9936195	0	7.649163e-19	-2.203451e-20	1.5707964	50
0	-0.6989223	0.6988845	0	7.774731e-19	-2.191873e-20	2.3561945	50
0	-0.99362046	1.3640583e-08	0	7.649215e-19	-2.203453e-20	3.1415927	50
0	-0.6989233	-0.69888365	0	7.774731e-19	-2.191873e-20	3.9269907	50
0	9.896478e-09	-0.99361956	0	7.649161e-19	-2.2034508e-20	4.712389	50
0	0.69892144	-0.6988854	0	7.7747305e-19	-2.1918727e-20	5.497787	50
0	0.99362046	-1.0890965e-08	0	7.6492157e-19	-2.2034528e-20	6.2831855	50
0	0.99467385	-1.0104886e-08	0	7.5471194e-19	-2.0482323e-20	0	45
0	0.6893616	0.6893363	0	7.287539e-19	-2.0074866e-20	0.7853982	45
0	-1.26463044e-08	0.9946727	0	7.5470506e-19	-2.04823e-20	1.5707964	45
0	-0.6893299	0.6893062	0	7.28754e-19	-2.0073966e-20	2.3561945	45
0	-0.9946733	1.0782212e-08	0	7.54712e-19	-2.0482315e-20	3.1415927	45
0	-0.68937224	-0.68932575	0	7.2875393e-19	-2.0074866e-20	3.9269907	45
0	8.5360385e-09	-0.99467266	0	7.5470506e-19	-2.04823e-20	4.712389	45
0	0.689363	-0.6893351	0	7.2875393e-19	-2.0074867e-20	5.497787	45
0	0.99467367	-9.413088e-09	0	7.5471184e-19	-2.0482323e-20	6.2831855	45
0	0.99597	-1.2543482e-08	0	7.4966464e-19	-1.8947334e-20	0	40
0	0.6761288	0.67610806	0	6.703913e-19	-1.819029e-20	0.7853982	40
0	-1.2394658e-08	0.9959687	0	7.4965745e-19	-1.8947312e-20	1.5707964	40
0	-0.6761288	0.6761079	0	6.703913e-19	-1.8190288e-20	2.3561945	40
0	-0.99596995	1.5045286e-08	0	7.496646e-19	-1.8947334e-20	3.1415927	40
0	-0.6761422	-0.6761219	0	6.703912e-19	-1.8190656e-20	3.9269907	40
0	1.3124677e-08	-0.9959687	0	7.496575e-19	-1.8947312e-20	4.712389	40
0	0.67612916	-0.67610735	0	6.703913e-19	-1.8190283e-20	5.497787	40
0	0.99597	-1.2917891e-08	0	7.4966464e-19	-1.8947334e-20	6.2831855	40
0	0.9972224	-1.0701995e-08	0	7.3814506e-19	-1.7184138e-20	0	35
0	0.6622452	0.6622351	0	6.0129005e-19	-1.6138612e-20	0.7853982	35
0	-1.3306585e-08	0.99722105	0	7.3813865e-19	-1.7184115e-20	1.5707964	35
0	-0.66224843	0.66223645	0	6.0129e-19	-1.6138669e-20	2.3561945	35
0	-0.9972222	1.6990368e-08	0	7.381449e-19	-1.7184134e-20	3.1415927	35
0	-0.6622489	-0.66223687	0	6.0128994e-19	-1.613868e-20	3.9269907	35
0	1.427855e-08	-0.99722105	0	7.381386e-19	-1.7184113e-20	4.712389	35
0	0.66225266	-0.66224223	0	6.0129e-19	-1.6138791e-20	5.497787	35
0	0.9972223	-1.8014218e-08	0	7.3814506e-19	-1.7184134e-20	6.2831855	35
0	0.9983651	-2.1370077e-08	0	7.295425e-19	-1.5366838e-20	0	30
0	0.6458984	0.6458929	0	5.2268023e-19	-1.4059582e-20	0.7853982	30
0	-1.9000142e-08	0.9983644	0	7.295376e-19	-1.5366825e-20	1.5707964	30
0	-0.64590055	0.64589506	0	5.226802e-19	-1.405963e-20	2.3561945	30
0	-0.9983651	1.6006744e-08	0	7.2954244e-19	-1.5366838e-20	3.1415927	30
0	-0.64589936	-0.6458938	0	5.226802e-19	-1.4059602e-20	3.9269907	30
0	1.5617562e-08	-0.9983644	0	7.295376e-19	-1.5366825e-20	4.712389	30
0	0.6458573	-0.6458519	0	5.2268023e-19	-1.4058687e-20	5.497787	30
0	0.9983651	-1.7441485e-08	0	7.295425e-19	-1.5366838e-20	6.2831855	30
0	0.9991119	-1.2129301e-08	0	7.0782895e-19	-1.3300179e-20	0	25
0	0.631421	0.6314185	0	4.3980444e-19	-1.1887115e-20	0.7853982	25
0	-1.7820499e-08	0.9991114	0	7.078261e-19	-1.3300172e-20	1.5707964	25
0	-0.6314226	0.63141876	0	4.3980444e-19	-1.1887132e-20	2.3561945	25
0	-0.99911183	1.6785634e-08	0	7.0782884e-19	-1.3300179e-20	3.1415927	25
0	-0.63142014	-0.63141763	0	4.398045e-19	-1.18870975e-20	3.9269907	25
0	1.37605145e-08	-0.9991114	0	7.0782605e-19	-1.33001724e-20	4.712389	25
0	0.63142264	-0.6314201	0	4.398045e-19	-1.1887145e-20	5.497787	25
0	0.99911183	-1.6166897e-08	0	7.078289e-19	-1.3300177e-20	6.2831855	25
0	0.99958116	-1.0049621e-08	0	6.7237867e-19	-1.100339e-20	0	20
0	0.6178329	0.61783165	0	3.5631208e-19	-9.618206e-21	0.7853982	20
0	-8.871931e-09	0.9995809	0	6.7237733e-19	-1.1003389e-20	1.5707964	20
0	-0.6178335	0.6178321	0	3.563121e-19	-9.618213e-21	2.3561945	20
0	-0.99958116	8.403561e-09	0	6.7237867e-19	-1.100339e-20	3.1415927	20
0	-0.6178333	-0.61783195	0	3.563121e-19	-9.618209e-21	3.9269907	20
0	1.0042852e-08	-0.999581	0	6.7237733e-19	-1.1003389e-20	4.712389	20
0	0.6178321	-0.6178308	0	3.563121e-19	-9.618193e-21	5.497787	20
0	0.9995813	-7.4397515e-09	0	6.723789e-19	-1.10033916e-20	6.2831855	20
0	0.9999159	-5.369629e-09	0	6.2903704e-19	-8.463289e-21	0	15
0	0.5974435	0.5974434	0	2.6104853e-19	-7.15134e-21	0.7853982	15
0	-3.3414937e-09	0.9999159	0	6.2903673e-19	-8.463289e-21	1.5707964	15
0	-0.59744006	0.59744	0	2.6104853e-19	-7.1513e-21	2.3561945	15
0	-0.9999159	4.1601425e-09	0	6.29037e-19	-8.4632896e-21	3.1415927	15
0	-0.5974433	-0.5974433	0	2.6104853e-19	-7.151339e-21	3.9269907	15
0	2.9554967e-09	-0.9999159	0	6.290367e-19	-8.463288e-21	4.712389	15
0	0.59744245	-0.5974423	0	2.6104853e-19	-7.151328e-21	5.497787	15
0	0.9999159	-4.7842517e-09	0	6.290371e-19	-8.463289e-21	6.2831855	15
0	0.999977	-9.32571e-10	0	5.5156765e-19	-5.9678626e-21	0	10
0	0.5858486	0.58584857	0	1.8509355e-19	-4.944578e-21	0.7853982	10
0	-1.3932386e-09	0.99997693	0	5.515675e-19	-5.967863e-21	1.5707964	10
0	-0.5858465	0.58584636	0	1.8509354e-19	-4.944559e-21	2.3561945	10
0	-0.999977	1.3582828e-09	0	5.5156755e-19	-5.9678626e-21	3.1415927	10
0	-0.5858461	-0.58584654	0	1.8509354e-19	-4.944559e-21	3.9269907	10
0	1.699414e-09	-0.99997693	0	5.5156744e-19	-5.967863e-21	4.712389	10
0	0.58585143	-0.58585125	0	1.8509354e-19	-4.9446014e-21	5.497787	10
0	0.999977	-1.2777596e-09	0	5.5156755e-19	-5.967863e-21	6.2831855	10
