# t (s)	mx ()	my ()	mz ()	E_total (J)	E_Zeeman (J)	Angle (rad)	Length (nm)
0	0.9999739	-2.0298056e-10	0	-1.0214782e-16	-1.02957305e-16	0	45
0	0.9949786	0.099828355	0	-1.02147846e-16	-1.0295735e-16	0.1	45
0	0.98004234	0.19865978	0	-1.021478e-16	-1.02957384e-16	0.2	45
0	0.9553143	0.29550722	0	-1.02147707e-16	-1.02957404e-16	0.3	45
0	0.9210409	0.3894031	0	-1.0214767e-16	-1.02957483e-16	0.4	45
0	0.87756443	0.4794092	0	-1.02147594e-16	-1.0295755e-16	0.5	45
0	0.8253188	0.564626	0	-1.0214754e-16	-1.0295761e-16	0.6	45
0	0.76482594	0.6442014	0	-1.02147515e-16	-1.0295764e-16	0.7	45
0	0.69669056	0.71733993	0	-1.0214751e-16	-1.0295765e-16	0.8	45
0	0.62159353	0.7833106	0	-1.0214752e-16	-1.0295763e-16	0.9	45
0	0.5402858	0.8414539	0	-1.02147554e-16	-1.02957596e-16	1	45
0	0.45358	0.8911888	0	-1.0214761e-16	-1.0295753e-16	1.1	45
0	0.36234304	0.9320184	0	-1.0214768e-16	-1.02957464e-16	1.2	45
0	0.26748672	0.9635353	0	-1.0214774e-16	-1.02957404e-16	1.3	45
0	0.16995881	0.985425	0	-1.02147786e-16	-1.02957344e-16	1.4	45
0	0.070733584	0.9974691	0	-1.0214782e-16	-1.02957325e-16	1.5	45
0	-0.029198013	0.9995475	0	-1.0214783e-16	-1.0295731e-16	1.6	45
0	-0.12883805	0.9916397	0	-1.02147806e-16	-1.0295733e-16	1.7	45
0	-0.22719142	0.973824	0	-1.0214777e-16	-1.02957384e-16	1.8	45
0	-0.32327577	0.9462785	0	-1.0214771e-16	-1.02957444e-16	1.9	45
0	-0.41613114	0.909278	0	-1.0214764e-16	-1.02957516e-16	2	45
0	-0.5048297	0.8631917	0	-1.0214758e-16	-1.02957556e-16	2.1	45
0	-0.58848464	0.8084797	0	-1.0214755e-16	-1.0295762e-16	2.2	45
0	-0.66625977	0.74568903	0	-1.0214751e-16	-1.0295765e-16	2.3	45
0	-0.7373775	0.675447	0	-1.021475e-16	-1.0295764e-16	2.4	45
0	-0.80112714	0.5984556	0	-1.0214754e-16	-1.0295763e-16	2.5	45
0	-0.8568713	0.51548487	0	-1.0214757e-16	-1.0295757e-16	2.6	45
0	-0.9040529	0.42736405	0	-1.02147634e-16	-1.02957516e-16	2.7	45
0	-0.9422012	0.3349741	0	-1.02147674e-16	-1.02957424e-16	2.8	45
0	-0.97093475	0.2392382	0	-1.02147766e-16	-1.02957384e-16	2.9	45
0	-0.98996735	0.14111298	0	-1.02147786e-16	-1.0295731e-16	3	45
0	-0.9991091	0.04157852	0	-1.02147806e-16	-1.02957305e-16	3.1	45
0	-0.99826884	-0.058371153	0	-1.0214781e-16	-1.02957305e-16	3.2	45
0	-0.98745495	-0.15773791	0	-1.02147786e-16	-1.0295733e-16	3.3	45
0	-0.9667752	-0.2555294	0	-1.02147727e-16	-1.02957384e-16	3.4	45
0	-0.9364357	-0.3507688	0	-1.02147674e-16	-1.02957444e-16	3.5	45
0	-0.8967396	-0.4425044	0	-1.02147634e-16	-1.02957536e-16	3.6	45
0	-0.84808266	-0.5298196	0	-1.0214757e-16	-1.0295759e-16	3.7	45
0	-0.79095125	-0.61184144	0	-1.02147515e-16	-1.0295763e-16	3.8	45
0	-0.7259162	-0.68775	0	-1.021475e-16	-1.0295764e-16	3.9	45
0	-0.65362734	-0.7567864	0	-1.0214751e-16	-1.0295764e-16	4	45
0	-0.5748074	-0.81826043	0	-1.0214754e-16	-1.0295761e-16	4.1	45
0	-0.49024442	-0.87155783	0	-1.0214758e-16	-1.02957556e-16	4.2	45
0	-0.40078378	-0.91614616	0	-1.0214766e-16	-1.0295751e-16	4.3	45
0	-0.30731955	-0.9515801	0	-1.0214771e-16	-1.02957424e-16	4.4	45
0	-0.21078579	-0.97750616	0	-1.0214778e-16	-1.02957364e-16	4.5	45
0	-0.11214687	-0.9936655	0	-1.02147806e-16	-1.02957325e-16	4.6	45
0	-0.012388024	-0.99989706	0	-1.0214783e-16	-1.0295731e-16	4.7	45
0	0.08749453	-0.9961388	0	-1.0214782e-16	-1.02957325e-16	4.8	45
0	0.18650334	-0.98242825	0	-1.0214777e-16	-1.02957344e-16	4.9	45
0	0.28364956	-0.9589019	0	-1.02147746e-16	-1.02957424e-16	5	45
0	0.3779627	-0.92579436	0	-1.02147674e-16	-1.02957483e-16	5.1	45
0	0.46850047	-0.8834362	0	-1.021476e-16	-1.02957536e-16	5.2	45
0	0.55435777	-0.83225054	0	-1.0214756e-16	-1.0295761e-16	5.3	45
0	0.6346765	-0.7727483	0	-1.0214752e-16	-1.0295763e-16	5.4	45
0	0.70865357	-0.7055242	0	-1.0214751e-16	-1.0295765e-16	5.5	45
0	0.7755496	-0.6312503	0	-1.0214752e-16	-1.0295764e-16	5.6	45
0	0.83469576	-0.550669	0	-1.02147535e-16	-1.0295759e-16	5.7	45
0	0.8855011	-0.46458596	0	-1.02147614e-16	-1.02957556e-16	5.8	45
0	0.927458	-0.37386173	0	-1.021477e-16	-1.0295751e-16	5.9	45
0	0.9601478	-0.279403	0	-1.02147746e-16	-1.02957424e-16	6	45
0	0.983244	-0.18215366	0	-1.02147786e-16	-1.02957364e-16	6.1	45
0	0.9965164	-0.083085164	0	-1.0214783e-16	-1.0295733e-16	6.2	45
0	0.999975	-1.7235985e-10	0	-1.02066855e-16	-1.0287742e-16	0	44.9
0	0.9949794	0.09983008	0	-1.0206685e-16	-1.0287743e-16	0.1	44.9
0	0.98004276	0.19866289	0	-1.0206684e-16	-1.0287746e-16	0.2	44.9
0	0.95531374	0.29551113	0	-1.02066835e-16	-1.028775e-16	0.3	44.9
0	0.9210396	0.38940704	0	-1.02066775e-16	-1.028775e-16	0.4	44.9
0	0.8775625	0.4794125	0	-1.0206678e-16	-1.02877565e-16	0.5	44.9
0	0.8253168	0.56462806	0	-1.0206675e-16	-1.02877565e-16	0.6	44.9
0	0.76482475	0.6442022	0	-1.0206674e-16	-1.02877584e-16	0.7	44.9
0	0.6966903	0.7173394	0	-1.0206675e-16	-1.0287759e-16	0.8	44.9
0	0.6215947	0.78330904	0	-1.0206675e-16	-1.02877584e-16	0.9	44.9
0	0.54028827	0.84145194	0	-1.0206677e-16	-1.02877565e-16	1	44.9
0	0.45358363	0.89118695	0	-1.02066775e-16	-1.0287753e-16	1.1	44.9
0	0.36234707	0.93201727	0	-1.0206681e-16	-1.0287751e-16	1.2	44.9
0	0.26749042	0.96353495	0	-1.0206683e-16	-1.0287748e-16	1.3	44.9
0	0.16996159	0.9854256	0	-1.0206685e-16	-1.0287745e-16	1.4	44.9
0	0.07073482	0.99747	0	-1.0206686e-16	-1.0287743e-16	1.5	44.9
0	-0.029198535	0.9995486	0	-1.02066855e-16	-1.0287743e-16	1.6	44.9
0	-0.12884024	0.99164015	0	-1.0206684e-16	-1.0287743e-16	1.7	44.9
0	-0.22719483	0.9738241	0	-1.0206684e-16	-1.0287747e-16	1.8	44.9
0	-0.32327974	0.9462777	0	-1.0206682e-16	-1.028775e-16	1.9	44.9
0	-0.41613495	0.9092764	0	-1.02066795e-16	-1.0287753e-16	2	44.9
0	-0.5048327	0.8631898	0	-1.02066775e-16	-1.02877565e-16	2.1	44.9
0	-0.5884864	0.8084781	0	-1.0206676e-16	-1.02877584e-16	2.2	44.9
0	-0.6662601	0.7456881	0	-1.0206676e-16	-1.0287759e-16	2.3	44.9
0	-0.7373767	0.67544717	0	-1.0206676e-16	-1.02877604e-16	2.4	44.9
0	-0.80112547	0.5984573	0	-1.02066755e-16	-1.02877584e-16	2.5	44.9
0	-0.85686934	0.51548773	0	-1.0206676e-16	-1.02877545e-16	2.6	44.9
0	-0.9040513	0.42736784	0	-1.020668e-16	-1.02877545e-16	2.7	44.9
0	-0.94220006	0.3349781	0	-1.020668e-16	-1.0287749e-16	2.8	44.9
0	-0.97093475	0.23924172	0	-1.02066815e-16	-1.0287745e-16	2.9	44.9
0	-0.9899681	0.14111535	0	-1.02066835e-16	-1.0287743e-16	3	44.9
0	-0.9991103	0.04157926	0	-1.02066835e-16	-1.0287741e-16	3.1	44.9
0	-0.9982699	-0.058372177	0	-1.02066855e-16	-1.0287743e-16	3.2	44.9
0	-0.9874554	-0.1577405	0	-1.0206685e-16	-1.0287745e-16	3.3	44.9
0	-0.9667749	-0.25553307	0	-1.0206683e-16	-1.0287747e-16	3.4	44.9
0	-0.9364348	-0.3507728	0	-1.02066795e-16	-1.0287749e-16	3.5	44.9
0	-0.8967378	-0.44250807	0	-1.0206678e-16	-1.02877525e-16	3.6	44.9
0	-0.8480808	-0.5298223	0	-1.0206677e-16	-1.0287755e-16	3.7	44.9
0	-0.7909497	-0.6118428	0	-1.02066755e-16	-1.0287759e-16	3.8	44.9
0	-0.72591543	-0.6877499	0	-1.0206675e-16	-1.0287759e-16	3.9	44.9
0	-0.6536279	-0.75678515	0	-1.0206676e-16	-1.02877604e-16	4	44.9
0	-0.57480943	-0.8182586	0	-1.02066755e-16	-1.0287757e-16	4.1	44.9
0	-0.49024767	-0.8715558	0	-1.0206677e-16	-1.02877545e-16	4.2	44.9
0	-0.40078768	-0.9161447	0	-1.02066795e-16	-1.02877525e-16	4.3	44.9
0	-0.3073235	-0.95157945	0	-1.0206682e-16	-1.0287749e-16	4.4	44.9
0	-0.21078902	-0.97750634	0	-1.0206683e-16	-1.0287745e-16	4.5	44.9
0	-0.1121488	-0.9936663	0	-1.0206684e-16	-1.0287743e-16	4.6	44.9
0	-0.012388244	-0.99989825	0	-1.02066855e-16	-1.0287743e-16	4.7	44.9
0	0.08749606	-0.9961399	0	-1.0206686e-16	-1.0287744e-16	4.8	44.9
0	0.18650633	-0.9824285	0	-1.0206685e-16	-1.0287746e-16	4.9	44.9
0	0.2836534	-0.9589012	0	-1.0206682e-16	-1.0287747e-16	5	44.9
0	0.37796667	-0.9257931	0	-1.0206681e-16	-1.02877525e-16	5.1	44.9
0	0.46850392	-0.8834344	0	-1.02066775e-16	-1.02877545e-16	5.2	44.9
0	0.5543601	-0.8322486	0	-1.0206676e-16	-1.0287757e-16	5.3	44.9
0	0.6346774	-0.77274686	0	-1.0206675e-16	-1.02877584e-16	5.4	44.9
0	0.7086532	-0.70552385	0	-1.02066755e-16	-1.0287759e-16	5.5	44.9
0	0.7755481	-0.63125134	0	-1.0206675e-16	-1.02877584e-16	5.6	44.9
0	0.83469385	-0.5506714	0	-1.0206677e-16	-1.0287757e-16	5.7	44.9
0	0.8854992	-0.46458945	0	-1.0206677e-16	-1.0287753e-16	5.8	44.9
0	0.9274566	-0.37386572	0	-1.0206682e-16	-1.0287753e-16	5.9	44.9
0	0.96014726	-0.27940682	0	-1.0206682e-16	-1.0287748e-16	6	44.9
0	0.9832443	-0.18215656	0	-1.0206684e-16	-1.0287745e-16	6.1	44.9
0	0.9965173	-0.083086625	0	-1.0206685e-16	-1.0287743e-16	6.2	44.9
0	0.9999748	-2.3137998e-10	0	-1.0190776e-16	-1.0271741e-16	0	44.8
0	0.99497926	0.09982969	0	-1.0190776e-16	-1.0271743e-16	0.1	44.8
0	0.98004264	0.19866218	0	-1.01907705e-16	-1.0271742e-16	0.2	44.8
0	0.9553139	0.29551023	0	-1.01907685e-16	-1.0271746e-16	0.3	44.8
0	0.9210399	0.3894061	0	-1.0190767e-16	-1.0271752e-16	0.4	44.8
0	0.877563	0.4794118	0	-1.01907646e-16	-1.0271756e-16	0.5	44.8
0	0.8253174	0.56462765	0	-1.0190762e-16	-1.0271758e-16	0.6	44.8
0	0.7648251	0.64420193	0	-1.0190759e-16	-1.02717614e-16	0.7	44.8
0	0.6966904	0.71733963	0	-1.01907586e-16	-1.027176e-16	0.8	44.8
0	0.6215944	0.7833094	0	-1.0190761e-16	-1.02717614e-16	0.9	44.8
0	0.54028773	0.84145236	0	-1.01907626e-16	-1.02717594e-16	1	44.8
0	0.45358276	0.89118725	0	-1.01907646e-16	-1.0271754e-16	1.1	44.8
0	0.36234614	0.93201756	0	-1.01907685e-16	-1.027175e-16	1.2	44.8
0	0.26748955	0.9635352	0	-1.01907725e-16	-1.0271748e-16	1.3	44.8
0	0.16996093	0.98542553	0	-1.01907725e-16	-1.0271742e-16	1.4	44.8
0	0.07073454	0.9974698	0	-1.0190776e-16	-1.0271742e-16	1.5	44.8
0	-0.029198416	0.99954844	0	-1.0190775e-16	-1.0271741e-16	1.6	44.8
0	-0.12883973	0.9916401	0	-1.0190774e-16	-1.0271742e-16	1.7	44.8
0	-0.22719403	0.9738241	0	-1.0190772e-16	-1.0271745e-16	1.8	44.8
0	-0.32327884	0.9462779	0	-1.0190769e-16	-1.027175e-16	1.9	44.8
0	-0.4161341	0.90927684	0	-1.0190767e-16	-1.0271754e-16	2	44.8
0	-0.50483197	0.8631903	0	-1.0190764e-16	-1.02717575e-16	2.1	44.8
0	-0.5884861	0.80847853	0	-1.0190762e-16	-1.02717594e-16	2.2	44.8
0	-0.6662601	0.7456883	0	-1.019076e-16	-1.02717614e-16	2.3	44.8
0	-0.7373769	0.67544717	0	-1.019076e-16	-1.027176e-16	2.4	44.8
0	-0.8011259	0.59845686	0	-1.0190761e-16	-1.027176e-16	2.5	44.8
0	-0.8568697	0.5154871	0	-1.0190763e-16	-1.0271758e-16	2.6	44.8
0	-0.9040518	0.42736697	0	-1.01907665e-16	-1.0271754e-16	2.7	44.8
0	-0.94220036	0.33497715	0	-1.01907705e-16	-1.0271752e-16	2.8	44.8
0	-0.9709346	0.23924091	0	-1.0190769e-16	-1.0271744e-16	2.9	44.8
0	-0.9899679	0.14111477	0	-1.0190776e-16	-1.0271744e-16	3	44.8
0	-0.9991099	0.041579086	0	-1.01907745e-16	-1.0271739e-16	3.1	44.8
0	-0.99826974	-0.05837193	0	-1.0190776e-16	-1.0271742e-16	3.2	44.8
0	-0.98745537	-0.15773991	0	-1.0190775e-16	-1.0271744e-16	3.3	44.8
0	-0.966775	-0.2555322	0	-1.0190771e-16	-1.0271746e-16	3.4	44.8
0	-0.93643504	-0.35077187	0	-1.0190769e-16	-1.0271751e-16	3.5	44.8
0	-0.8967383	-0.44250727	0	-1.0190767e-16	-1.0271754e-16	3.6	44.8
0	-0.84808123	-0.5298217	0	-1.0190764e-16	-1.0271758e-16	3.7	44.8
0	-0.7909501	-0.6118425	0	-1.0190762e-16	-1.02717594e-16	3.8	44.8
0	-0.7259156	-0.68775	0	-1.0190759e-16	-1.02717614e-16	3.9	44.8
0	-0.65362775	-0.75678545	0	-1.0190761e-16	-1.02717614e-16	4	44.8
0	-0.574809	-0.81825906	0	-1.01907606e-16	-1.0271758e-16	4.1	44.8
0	-0.49024692	-0.87155634	0	-1.0190764e-16	-1.02717555e-16	4.2	44.8
0	-0.4007868	-0.9161451	0	-1.01907665e-16	-1.0271751e-16	4.3	44.8
0	-0.30732256	-0.9515798	0	-1.019077e-16	-1.0271748e-16	4.4	44.8
0	-0.21078826	-0.97750634	0	-1.0190772e-16	-1.0271744e-16	4.5	44.8
0	-0.112148345	-0.9936661	0	-1.0190774e-16	-1.0271742e-16	4.6	44.8
0	-0.012388194	-0.9998981	0	-1.0190776e-16	-1.0271741e-16	4.7	44.8
0	0.0874957	-0.9961396	0	-1.0190775e-16	-1.0271742e-16	4.8	44.8
0	0.18650563	-0.98242855	0	-1.01907725e-16	-1.0271744e-16	4.9	44.8
0	0.28365245	-0.95890146	0	-1.01907705e-16	-1.0271747e-16	5	44.8
0	0.37796578	-0.9257934	0	-1.01907685e-16	-1.0271752e-16	5.1	44.8
0	0.46850315	-0.88343495	0	-1.01907646e-16	-1.02717555e-16	5.2	44.8
0	0.55435956	-0.83224905	0	-1.01907626e-16	-1.0271758e-16	5.3	44.8
0	0.63467723	-0.7727472	0	-1.019076e-16	-1.027176e-16	5.4	44.8
0	0.70865333	-0.70552397	0	-1.0190759e-16	-1.02717614e-16	5.5	44.8
0	0.7755485	-0.63125104	0	-1.019076e-16	-1.027176e-16	5.6	44.8
0	0.8346944	-0.5506708	0	-1.01907626e-16	-1.02717594e-16	5.7	44.8
0	0.8854998	-0.46458864	0	-1.01907646e-16	-1.02717555e-16	5.8	44.8
0	0.92745715	-0.3738648	0	-1.01907665e-16	-1.0271749e-16	5.9	44.8
0	0.9601474	-0.2794059	0	-1.019077e-16	-1.0271746e-16	6	44.8
0	0.9832443	-0.18215588	0	-1.01907725e-16	-1.0271743e-16	6.1	44.8
0	0.996517	-0.08308628	0	-1.0190776e-16	-1.0271742e-16	6.2	44.8
0	0.9999748	-7.9184215e-11	0	-1.0174772e-16	-1.0255742e-16	0	44.7
0	0.9949792	0.099830054	0	-1.0174769e-16	-1.0255741e-16	0.1	44.7
0	0.98004246	0.19866286	0	-1.01747695e-16	-1.0255745e-16	0.2	44.7
0	0.9553135	0.29551104	0	-1.0174767e-16	-1.0255747e-16	0.3	44.7
0	0.92103946	0.38940695	0	-1.0174766e-16	-1.0255751e-16	0.4	44.7
0	0.87756234	0.4794124	0	-1.0174763e-16	-1.02557525e-16	0.5	44.7
0	0.8253167	0.564628	0	-1.0174761e-16	-1.0255755e-16	0.6	44.7
0	0.76482445	0.64420193	0	-1.01747596e-16	-1.02557565e-16	0.7	44.7
0	0.69669014	0.7173392	0	-1.0174759e-16	-1.02557565e-16	0.8	44.7
0	0.62159455	0.7833088	0	-1.0174759e-16	-1.0255757e-16	0.9	44.7
0	0.54028815	0.8414516	0	-1.0174762e-16	-1.02557545e-16	1	44.7
0	0.45358348	0.8911867	0	-1.01747636e-16	-1.0255751e-16	1.1	44.7
0	0.36234698	0.93201715	0	-1.01747656e-16	-1.0255749e-16	1.2	44.7
0	0.26749042	0.9635349	0	-1.0174769e-16	-1.0255745e-16	1.3	44.7
0	0.16996153	0.98542523	0	-1.01747676e-16	-1.0255743e-16	1.4	44.7
0	0.070734814	0.99746996	0	-1.01747695e-16	-1.0255742e-16	1.5	44.7
0	-0.029198531	0.9995485	0	-1.0174771e-16	-1.0255742e-16	1.6	44.7
0	-0.1288402	0.9916401	0	-1.0174769e-16	-1.0255743e-16	1.7	44.7
0	-0.2271948	0.97382385	0	-1.0174768e-16	-1.0255745e-16	1.8	44.7
0	-0.32327965	0.94627756	0	-1.01747656e-16	-1.0255748e-16	1.9	44.7
0	-0.41613492	0.9092761	0	-1.0174764e-16	-1.0255751e-16	2	44.7
0	-0.5048325	0.8631896	0	-1.01747616e-16	-1.0255753e-16	2.1	44.7
0	-0.5884862	0.80847776	0	-1.01747616e-16	-1.02557565e-16	2.2	44.7
0	-0.6662599	0.74568784	0	-1.017476e-16	-1.0255757e-16	2.3	44.7
0	-0.7373765	0.6754469	0	-1.017476e-16	-1.02557585e-16	2.4	44.7
0	-0.80112517	0.59845716	0	-1.0174761e-16	-1.02557565e-16	2.5	44.7
0	-0.8568691	0.51548755	0	-1.01747616e-16	-1.0255753e-16	2.6	44.7
0	-0.9040511	0.42736775	0	-1.0174763e-16	-1.025575e-16	2.7	44.7
0	-0.9421999	0.33497804	0	-1.0174764e-16	-1.0255746e-16	2.8	44.7
0	-0.9709345	0.23924169	0	-1.0174768e-16	-1.0255744e-16	2.9	44.7
0	-0.98996794	0.14111531	0	-1.0174771e-16	-1.0255744e-16	3	44.7
0	-0.9991099	0.041579254	0	-1.01747676e-16	-1.02557386e-16	3.1	44.7
0	-0.9982696	-0.058372166	0	-1.01747695e-16	-1.0255741e-16	3.2	44.7
0	-0.9874551	-0.15774049	0	-1.01747695e-16	-1.0255743e-16	3.3	44.7
0	-0.9667747	-0.25553298	0	-1.0174768e-16	-1.0255745e-16	3.4	44.7
0	-0.9364344	-0.35077274	0	-1.0174765e-16	-1.0255748e-16	3.5	44.7
0	-0.89673764	-0.44250798	0	-1.0174764e-16	-1.02557525e-16	3.6	44.7
0	-0.8480805	-0.5298222	0	-1.01747616e-16	-1.0255755e-16	3.7	44.7
0	-0.7909495	-0.6118426	0	-1.017476e-16	-1.0255755e-16	3.8	44.7
0	-0.7259152	-0.6877497	0	-1.0174761e-16	-1.02557585e-16	3.9	44.7
0	-0.65362775	-0.7567849	0	-1.01747596e-16	-1.02557565e-16	4	44.7
0	-0.5748093	-0.8182582	0	-1.0174761e-16	-1.0255755e-16	4.1	44.7
0	-0.49024758	-0.8715556	0	-1.0174762e-16	-1.0255753e-16	4.2	44.7
0	-0.4007876	-0.91614443	0	-1.0174764e-16	-1.025575e-16	4.3	44.7
0	-0.30732343	-0.9515792	0	-1.0174766e-16	-1.0255747e-16	4.4	44.7
0	-0.21078898	-0.9775061	0	-1.0174768e-16	-1.0255744e-16	4.5	44.7
0	-0.11214878	-0.9936662	0	-1.01747695e-16	-1.0255742e-16	4.6	44.7
0	-0.012388242	-0.99989814	0	-1.017477e-16	-1.0255741e-16	4.7	44.7
0	0.08749602	-0.9961395	0	-1.0174769e-16	-1.0255741e-16	4.8	44.7
0	0.18650627	-0.9824284	0	-1.0174768e-16	-1.0255743e-16	4.9	44.7
0	0.2836533	-0.95890105	0	-1.01747676e-16	-1.0255747e-16	5	44.7
0	0.37796664	-0.9257929	0	-1.01747656e-16	-1.0255749e-16	5.1	44.7
0	0.46850377	-0.8834342	0	-1.01747616e-16	-1.02557525e-16	5.2	44.7
0	0.55436	-0.83224833	0	-1.01747616e-16	-1.0255755e-16	5.3	44.7
0	0.6346773	-0.7727466	0	-1.01747596e-16	-1.0255757e-16	5.4	44.7
0	0.70865303	-0.7055236	0	-1.0174759e-16	-1.0255757e-16	5.5	44.7
0	0.775548	-0.63125104	0	-1.0174759e-16	-1.0255755e-16	5.6	44.7
0	0.8346937	-0.5506712	0	-1.0174763e-16	-1.0255755e-16	5.7	44.7
0	0.885499	-0.46458933	0	-1.01747636e-16	-1.02557545e-16	5.8	44.7
0	0.9274566	-0.37386563	0	-1.0174765e-16	-1.0255749e-16	5.9	44.7
0	0.9601471	-0.27940673	0	-1.0174766e-16	-1.0255745e-16	6	44.7
0	0.98324406	-0.18215652	0	-1.0174772e-16	-1.0255747e-16	6.1	44.7
0	0.9965171	-0.0830866	0	-1.0174769e-16	-1.0255741e-16	6.2	44.7
0	0.9999748	-5.14879e-11	0	-1.0174771e-16	-1.0255742e-16	0	44.6
0	0.9949793	0.099830054	0	-1.0174769e-16	-1.0255741e-16	0.1	44.6
0	0.98004246	0.19866286	0	-1.0174769e-16	-1.0255744e-16	0.2	44.6
0	0.9553135	0.29551104	0	-1.0174767e-16	-1.0255747e-16	0.3	44.6
0	0.92103934	0.38940695	0	-1.0174767e-16	-1.0255753e-16	0.4	44.6
0	0.8775622	0.4794124	0	-1.0174761e-16	-1.0255751e-16	0.5	44.6
0	0.8253167	0.564628	0	-1.0174761e-16	-1.0255755e-16	0.6	44.6
0	0.76482445	0.6442018	0	-1.01747596e-16	-1.0255757e-16	0.7	44.6
0	0.69669014	0.71733916	0	-1.017476e-16	-1.02557565e-16	0.8	44.6
0	0.6215945	0.7833088	0	-1.01747616e-16	-1.0255755e-16	0.9	44.6
0	0.54028815	0.8414517	0	-1.0174762e-16	-1.02557545e-16	1	44.6
0	0.45358348	0.8911867	0	-1.0174762e-16	-1.0255751e-16	1.1	44.6
0	0.36234698	0.93201715	0	-1.01747656e-16	-1.0255749e-16	1.2	44.6
0	0.26749042	0.9635349	0	-1.0174767e-16	-1.0255746e-16	1.3	44.6
0	0.16996153	0.98542523	0	-1.0174769e-16	-1.0255743e-16	1.4	44.6
0	0.07073481	0.99746996	0	-1.01747695e-16	-1.0255741e-16	1.5	44.6
0	-0.029198531	0.9995485	0	-1.0174772e-16	-1.0255743e-16	1.6	44.6
0	-0.1288402	0.9916402	0	-1.0174769e-16	-1.0255743e-16	1.7	44.6
0	-0.2271948	0.97382385	0	-1.0174768e-16	-1.0255745e-16	1.8	44.6
0	-0.32327965	0.94627756	0	-1.0174767e-16	-1.0255748e-16	1.9	44.6
0	-0.41613492	0.9092761	0	-1.0174764e-16	-1.0255751e-16	2	44.6
0	-0.5048325	0.8631896	0	-1.01747616e-16	-1.0255753e-16	2.1	44.6
0	-0.5884862	0.8084779	0	-1.017476e-16	-1.0255755e-16	2.2	44.6
0	-0.6662599	0.74568784	0	-1.017476e-16	-1.0255757e-16	2.3	44.6
0	-0.73737645	0.6754469	0	-1.017476e-16	-1.0255757e-16	2.4	44.6
0	-0.80112517	0.5984571	0	-1.0174762e-16	-1.02557565e-16	2.5	44.6
0	-0.85686904	0.51548755	0	-1.01747616e-16	-1.0255753e-16	2.6	44.6
0	-0.904051	0.4273677	0	-1.0174763e-16	-1.025575e-16	2.7	44.6
0	-0.9421999	0.33497804	0	-1.0174764e-16	-1.0255746e-16	2.8	44.6
0	-0.9709345	0.23924169	0	-1.0174767e-16	-1.0255744e-16	2.9	44.6
0	-0.98996794	0.14111531	0	-1.0174771e-16	-1.0255745e-16	3	44.6
0	-0.99911	0.041579254	0	-1.01747676e-16	-1.02557386e-16	3.1	44.6
0	-0.9982696	-0.058372166	0	-1.0174771e-16	-1.0255742e-16	3.2	44.6
0	-0.9874553	-0.15774049	0	-1.01747715e-16	-1.0255743e-16	3.3	44.6
0	-0.9667747	-0.25553298	0	-1.0174767e-16	-1.0255746e-16	3.4	44.6
0	-0.9364345	-0.35077274	0	-1.0174765e-16	-1.0255748e-16	3.5	44.6
0	-0.89673764	-0.44250798	0	-1.0174764e-16	-1.02557525e-16	3.6	44.6
0	-0.8480805	-0.5298222	0	-1.01747616e-16	-1.02557545e-16	3.7	44.6
0	-0.79094946	-0.6118426	0	-1.01747596e-16	-1.0255755e-16	3.8	44.6
0	-0.7259152	-0.6877497	0	-1.0174761e-16	-1.02557585e-16	3.9	44.6
0	-0.65362775	-0.7567849	0	-1.01747596e-16	-1.02557565e-16	4	44.6
0	-0.5748093	-0.8182582	0	-1.0174761e-16	-1.0255755e-16	4.1	44.6
0	-0.49024752	-0.8715556	0	-1.0174762e-16	-1.0255753e-16	4.2	44.6
0	-0.40078753	-0.91614443	0	-1.0174764e-16	-1.025575e-16	4.3	44.6
0	-0.30732343	-0.9515792	0	-1.0174767e-16	-1.0255747e-16	4.4	44.6
0	-0.21078898	-0.9775061	0	-1.0174768e-16	-1.0255744e-16	4.5	44.6
0	-0.11214877	-0.9936662	0	-1.01747695e-16	-1.0255742e-16	4.6	44.6
0	-0.012388242	-0.99989814	0	-1.017477e-16	-1.0255741e-16	4.7	44.6
0	0.08749602	-0.9961395	0	-1.017477e-16	-1.0255742e-16	4.8	44.6
0	0.1865063	-0.9824284	0	-1.01747695e-16	-1.0255744e-16	4.9	44.6
0	0.28365332	-0.95890117	0	-1.01747676e-16	-1.0255746e-16	5	44.6
0	0.3779666	-0.9257929	0	-1.01747656e-16	-1.0255749e-16	5.1	44.6
0	0.4685037	-0.8834342	0	-1.01747616e-16	-1.0255751e-16	5.2	44.6
0	0.55436	-0.83224833	0	-1.01747616e-16	-1.02557565e-16	5.3	44.6
0	0.6346773	-0.7727466	0	-1.01747596e-16	-1.02557565e-16	5.4	44.6
0	0.70865303	-0.7055236	0	-1.0174758e-16	-1.02557565e-16	5.5	44.6
0	0.77554786	-0.63125104	0	-1.0174761e-16	-1.0255757e-16	5.6	44.6
0	0.8346937	-0.55067116	0	-1.0174763e-16	-1.02557565e-16	5.7	44.6
0	0.885499	-0.46458933	0	-1.0174763e-16	-1.02557545e-16	5.8	44.6
0	0.9274565	-0.37386563	0	-1.0174765e-16	-1.0255749e-16	5.9	44.6
0	0.9601471	-0.27940673	0	-1.0174766e-16	-1.0255745e-16	6	44.6
0	0.98324406	-0.18215652	0	-1.0174772e-16	-1.0255746e-16	6.1	44.6
0	0.996517	-0.0830866	0	-1.0174769e-16	-1.0255741e-16	6.2	44.6
0	0.9999748	-7.891179e-11	0	-1.0174771e-16	-1.0255741e-16	0	44.5
0	0.9949793	0.099830054	0	-1.0174769e-16	-1.0255741e-16	0.1	44.5
0	0.98004246	0.19866286	0	-1.01747695e-16	-1.0255745e-16	0.2	44.5
0	0.9553135	0.29551104	0	-1.0174768e-16	-1.0255747e-16	0.3	44.5
0	0.92103934	0.38940695	0	-1.0174767e-16	-1.0255753e-16	0.4	44.5
0	0.8775622	0.47941235	0	-1.0174763e-16	-1.0255751e-16	0.5	44.5
0	0.8253167	0.56462795	0	-1.0174761e-16	-1.0255755e-16	0.6	44.5
0	0.7648245	0.64420193	0	-1.0174761e-16	-1.02557565e-16	0.7	44.5
0	0.69669014	0.71733916	0	-1.0174759e-16	-1.02557565e-16	0.8	44.5
0	0.62159455	0.7833088	0	-1.0174759e-16	-1.0255755e-16	0.9	44.5
0	0.54028815	0.8414516	0	-1.0174762e-16	-1.02557545e-16	1	44.5
0	0.45358348	0.8911867	0	-1.0174762e-16	-1.0255751e-16	1.1	44.5
0	0.36234698	0.93201715	0	-1.01747656e-16	-1.0255749e-16	1.2	44.5
0	0.26749042	0.9635349	0	-1.01747676e-16	-1.0255745e-16	1.3	44.5
0	0.16996153	0.98542523	0	-1.0174769e-16	-1.0255743e-16	1.4	44.5
0	0.070734814	0.99746984	0	-1.01747695e-16	-1.0255741e-16	1.5	44.5
0	-0.029198531	0.9995485	0	-1.0174772e-16	-1.0255743e-16	1.6	44.5
0	-0.12884021	0.9916401	0	-1.0174769e-16	-1.0255743e-16	1.7	44.5
0	-0.2271948	0.97382385	0	-1.0174768e-16	-1.0255745e-16	1.8	44.5
0	-0.3232797	0.94627756	0	-1.01747656e-16	-1.0255747e-16	1.9	44.5
0	-0.4161349	0.90927625	0	-1.01747656e-16	-1.02557525e-16	2	44.5
0	-0.5048325	0.8631896	0	-1.0174763e-16	-1.0255753e-16	2.1	44.5
0	-0.5884862	0.8084779	0	-1.017476e-16	-1.02557565e-16	2.2	44.5
0	-0.6662599	0.74568784	0	-1.017476e-16	-1.0255757e-16	2.3	44.5
0	-0.7373765	0.6754469	0	-1.017476e-16	-1.0255757e-16	2.4	44.5
0	-0.80112517	0.59845716	0	-1.0174761e-16	-1.02557565e-16	2.5	44.5
0	-0.8568691	0.51548755	0	-1.01747616e-16	-1.0255753e-16	2.6	44.5
0	-0.9040511	0.42736775	0	-1.0174763e-16	-1.025575e-16	2.7	44.5
0	-0.9421998	0.33497804	0	-1.0174764e-16	-1.0255745e-16	2.8	44.5
0	-0.9709345	0.23924169	0	-1.0174767e-16	-1.0255745e-16	2.9	44.5
0	-0.9899679	0.14111531	0	-1.0174771e-16	-1.0255744e-16	3	44.5
0	-0.99911	0.041579254	0	-1.01747676e-16	-1.02557386e-16	3.1	44.5
0	-0.9982696	-0.05837217	0	-1.01747715e-16	-1.0255741e-16	3.2	44.5
0	-0.9874553	-0.15774049	0	-1.017477e-16	-1.0255743e-16	3.3	44.5
0	-0.9667747	-0.255533	0	-1.0174767e-16	-1.0255745e-16	3.4	44.5
0	-0.9364345	-0.35077274	0	-1.0174765e-16	-1.0255749e-16	3.5	44.5
0	-0.89673764	-0.44250798	0	-1.0174764e-16	-1.0255751e-16	3.6	44.5
0	-0.84808046	-0.5298222	0	-1.01747616e-16	-1.0255755e-16	3.7	44.5
0	-0.7909495	-0.6118426	0	-1.017476e-16	-1.02557565e-16	3.8	44.5
0	-0.72591513	-0.6877497	0	-1.0174761e-16	-1.0255757e-16	3.9	44.5
0	-0.6536277	-0.7567849	0	-1.017476e-16	-1.0255757e-16	4	44.5
0	-0.5748093	-0.8182582	0	-1.0174761e-16	-1.0255755e-16	4.1	44.5
0	-0.49024758	-0.8715556	0	-1.0174762e-16	-1.0255753e-16	4.2	44.5
0	-0.4007876	-0.9161444	0	-1.0174764e-16	-1.025575e-16	4.3	44.5
0	-0.30732343	-0.9515792	0	-1.0174766e-16	-1.0255747e-16	4.4	44.5
0	-0.21078897	-0.9775061	0	-1.0174768e-16	-1.0255744e-16	4.5	44.5
0	-0.11214877	-0.9936662	0	-1.01747695e-16	-1.0255742e-16	4.6	44.5
0	-0.012388242	-0.99989814	0	-1.017477e-16	-1.0255741e-16	4.7	44.5
0	0.08749603	-0.9961395	0	-1.017477e-16	-1.0255742e-16	4.8	44.5
0	0.18650627	-0.9824284	0	-1.01747695e-16	-1.0255744e-16	4.9	44.5
0	0.2836533	-0.95890105	0	-1.01747676e-16	-1.0255747e-16	5	44.5
0	0.37796664	-0.92579293	0	-1.01747656e-16	-1.025575e-16	5.1	44.5
0	0.46850377	-0.8834342	0	-1.0174763e-16	-1.02557525e-16	5.2	44.5
0	0.55436	-0.83224833	0	-1.01747616e-16	-1.02557565e-16	5.3	44.5
0	0.63467723	-0.7727466	0	-1.0174762e-16	-1.0255757e-16	5.4	44.5
0	0.70865303	-0.70552367	0	-1.017476e-16	-1.0255757e-16	5.5	44.5
0	0.77554804	-0.6312511	0	-1.0174759e-16	-1.0255755e-16	5.6	44.5
0	0.83469373	-0.5506712	0	-1.01747616e-16	-1.02557565e-16	5.7	44.5
0	0.885499	-0.46458933	0	-1.0174765e-16	-1.0255755e-16	5.8	44.5
0	0.9274565	-0.37386563	0	-1.0174765e-16	-1.0255749e-16	5.9	44.5
0	0.960147	-0.27940673	0	-1.0174766e-16	-1.0255745e-16	6	44.5
0	0.98324406	-0.18215652	0	-1.01747715e-16	-1.0255746e-16	6.1	44.5
0	0.9965171	-0.0830866	0	-1.0174769e-16	-1.0255741e-16	6.2	44.5
0	0.9999746	-2.401066e-11	0	-1.0158823e-16	-1.0239741e-16	0	44.4
0	0.9949791	0.09983002	0	-1.01588215e-16	-1.02397396e-16	0.1	44.4
0	0.9800423	0.19866279	0	-1.0158822e-16	-1.0239743e-16	0.2	44.4
0	0.9553133	0.29551095	0	-1.0158819e-16	-1.0239745e-16	0.3	44.4
0	0.9210392	0.38940683	0	-1.0158818e-16	-1.023975e-16	0.4	44.4
0	0.87756217	0.47941226	0	-1.01588155e-16	-1.02397535e-16	0.5	44.4
0	0.8253166	0.5646278	0	-1.01588136e-16	-1.0239754e-16	0.6	44.4
0	0.7648244	0.6442019	0	-1.0158814e-16	-1.02397575e-16	0.7	44.4
0	0.69669	0.71733916	0	-1.0158811e-16	-1.02397555e-16	0.8	44.4
0	0.6215944	0.7833088	0	-1.01588136e-16	-1.02397555e-16	0.9	44.4
0	0.5402881	0.84145164	0	-1.0158814e-16	-1.0239754e-16	1	44.4
0	0.45358333	0.8911866	0	-1.0158815e-16	-1.023975e-16	1.1	44.4
0	0.3623469	0.93201697	0	-1.0158818e-16	-1.0239748e-16	1.2	44.4
0	0.26749033	0.9635347	0	-1.015882e-16	-1.0239746e-16	1.3	44.4
0	0.16996148	0.9854251	0	-1.01588215e-16	-1.0239743e-16	1.4	44.4
0	0.070734784	0.9974698	0	-1.0158822e-16	-1.02397396e-16	1.5	44.4
0	-0.029198518	0.99954826	0	-1.01588235e-16	-1.0239741e-16	1.6	44.4
0	-0.12884016	0.9916399	0	-1.01588215e-16	-1.0239741e-16	1.7	44.4
0	-0.2271947	0.9738237	0	-1.0158821e-16	-1.0239744e-16	1.8	44.4
0	-0.32327956	0.9462773	0	-1.0158819e-16	-1.0239747e-16	1.9	44.4
0	-0.41613483	0.9092761	0	-1.0158818e-16	-1.0239751e-16	2	44.4
0	-0.5048324	0.8631895	0	-1.0158815e-16	-1.02397535e-16	2.1	44.4
0	-0.58848614	0.8084777	0	-1.01588136e-16	-1.02397555e-16	2.2	44.4
0	-0.66625977	0.7456878	0	-1.0158812e-16	-1.0239756e-16	2.3	44.4
0	-0.73737633	0.67544687	0	-1.0158812e-16	-1.02397575e-16	2.4	44.4
0	-0.80112505	0.598457	0	-1.0158814e-16	-1.02397555e-16	2.5	44.4
0	-0.8568689	0.5154875	0	-1.0158815e-16	-1.02397535e-16	2.6	44.4
0	-0.904051	0.4273676	0	-1.01588175e-16	-1.0239751e-16	2.7	44.4
0	-0.9421998	0.33497792	0	-1.0158818e-16	-1.0239747e-16	2.8	44.4
0	-0.9709344	0.23924157	0	-1.0158821e-16	-1.0239743e-16	2.9	44.4
0	-0.98996764	0.14111528	0	-1.015882e-16	-1.02397396e-16	3	44.4
0	-0.99910986	0.041579235	0	-1.015882e-16	-1.02397376e-16	3.1	44.4
0	-0.99826944	-0.05837215	0	-1.0158822e-16	-1.02397396e-16	3.2	44.4
0	-0.98745507	-0.15774041	0	-1.0158822e-16	-1.0239742e-16	3.3	44.4
0	-0.9667746	-0.25553292	0	-1.0158821e-16	-1.0239745e-16	3.4	44.4
0	-0.9364344	-0.35077265	0	-1.0158819e-16	-1.0239748e-16	3.5	44.4
0	-0.89673746	-0.44250783	0	-1.0158816e-16	-1.0239752e-16	3.6	44.4
0	-0.84808046	-0.52982205	0	-1.0158815e-16	-1.0239754e-16	3.7	44.4
0	-0.7909494	-0.6118425	0	-1.0158813e-16	-1.02397575e-16	3.8	44.4
0	-0.7259152	-0.6877497	0	-1.01588136e-16	-1.02397575e-16	3.9	44.4
0	-0.6536276	-0.7567848	0	-1.01588116e-16	-1.02397555e-16	4	44.4
0	-0.57480913	-0.8182583	0	-1.0158814e-16	-1.0239754e-16	4.1	44.4
0	-0.49024743	-0.8715556	0	-1.01588136e-16	-1.0239751e-16	4.2	44.4
0	-0.40078744	-0.9161444	0	-1.01588155e-16	-1.0239748e-16	4.3	44.4
0	-0.3073233	-0.9515791	0	-1.0158819e-16	-1.0239746e-16	4.4	44.4
0	-0.21078889	-0.977506	0	-1.0158821e-16	-1.0239743e-16	4.5	44.4
0	-0.112148724	-0.99366605	0	-1.01588235e-16	-1.0239741e-16	4.6	44.4
0	-0.012388239	-0.99989796	0	-1.01588235e-16	-1.0239741e-16	4.7	44.4
0	0.087496	-0.9961395	0	-1.0158824e-16	-1.0239741e-16	4.8	44.4
0	0.1865062	-0.98242825	0	-1.01588215e-16	-1.0239743e-16	4.9	44.4
0	0.28365326	-0.9589011	0	-1.015882e-16	-1.0239746e-16	5	44.4
0	0.3779665	-0.9257928	0	-1.0158818e-16	-1.0239749e-16	5.1	44.4
0	0.46850362	-0.8834342	0	-1.0158815e-16	-1.0239751e-16	5.2	44.4
0	0.5543598	-0.8322482	0	-1.01588136e-16	-1.0239754e-16	5.3	44.4
0	0.6346772	-0.7727465	0	-1.0158813e-16	-1.0239756e-16	5.4	44.4
0	0.7086529	-0.70552355	0	-1.0158812e-16	-1.0239756e-16	5.5	44.4
0	0.77554786	-0.631251	0	-1.0158813e-16	-1.02397555e-16	5.6	44.4
0	0.83469355	-0.55067116	0	-1.0158815e-16	-1.02397555e-16	5.7	44.4
0	0.8854989	-0.4645892	0	-1.0158816e-16	-1.0239751e-16	5.8	44.4
0	0.9274565	-0.37386551	0	-1.01588175e-16	-1.0239748e-16	5.9	44.4
0	0.9601469	-0.27940664	0	-1.0158821e-16	-1.0239746e-16	6	44.4
0	0.98324394	-0.18215646	0	-1.0158822e-16	-1.0239743e-16	6.1	44.4
0	0.996517	-0.08308657	0	-1.0158823e-16	-1.0239741e-16	6.2	44.4
0	0.9999746	-2.2153526e-10	0	-1.0142846e-16	-1.022374e-16	0	44.3
0	0.99497896	0.09983014	0	-1.01428476e-16	-1.02237406e-16	0.1	44.3
0	0.980042	0.198663	0	-1.01428457e-16	-1.0223742e-16	0.2	44.3
0	0.9553131	0.29551122	0	-1.0142844e-16	-1.0223744e-16	0.3	44.3
0	0.9210389	0.3894071	0	-1.0142841e-16	-1.0223747e-16	0.4	44.3
0	0.87756187	0.47941244	0	-1.014284e-16	-1.0223749e-16	0.5	44.3
0	0.82531613	0.5646279	0	-1.0142839e-16	-1.0223752e-16	0.6	44.3
0	0.76482415	0.64420176	0	-1.01428384e-16	-1.0223753e-16	0.7	44.3
0	0.69668984	0.7173388	0	-1.01428384e-16	-1.02237545e-16	0.8	44.3
0	0.6215944	0.7833084	0	-1.014284e-16	-1.0223753e-16	0.9	44.3
0	0.54028815	0.8414511	0	-1.0142839e-16	-1.0223751e-16	1	44.3
0	0.45358357	0.89118624	0	-1.0142841e-16	-1.0223749e-16	1.1	44.3
0	0.3623471	0.93201655	0	-1.0142844e-16	-1.0223747e-16	1.2	44.3
0	0.2674906	0.9635345	0	-1.0142843e-16	-1.0223743e-16	1.3	44.3
0	0.16996168	0.985425	0	-1.01428457e-16	-1.02237406e-16	1.4	44.3
0	0.070734866	0.99746966	0	-1.0142847e-16	-1.022374e-16	1.5	44.3
0	-0.029198555	0.9995482	0	-1.01428476e-16	-1.022374e-16	1.6	44.3
0	-0.12884031	0.99163973	0	-1.0142847e-16	-1.02237406e-16	1.7	44.3
0	-0.22719496	0.9738235	0	-1.01428457e-16	-1.0223743e-16	1.8	44.3