# t (s)	mx ()	my ()	mz ()	E_total (J)	E_Zeeman (J)	Angle (rad)	Roundness ()	Size (nm)
0	0.9895646	-1.5995205e-08	0	1.2092357e-18	-5.110903e-20	0	1	128
0	0.6980523	0.6980262	0	1.1851939e-18	-5.0985694e-20	0.7853982	1	128
0	0.9894244	-2.1154824e-08	0	1.2037848e-18	-5.0848505e-20	0	0.99	128
0	0.6982182	0.6981977	0	1.1844068e-18	-5.074524e-20	0.7853982	0.99	128
0	0.98908466	-2.7300123e-08	0	1.1946301e-18	-5.051453e-20	0	0.98	128
0	0.6984796	0.69845796	0	1.1827266e-18	-5.04481e-20	0.7853982	0.98	128
0	0.9891737	-1.6674662e-08	0	1.1920236e-18	-5.0265856e-20	0	0.97	128
0	0.69856656	0.6985355	0	1.1805061e-18	-5.020114e-20	0.7853982	0.97	128
0	0.98917395	-2.614741e-08	0	1.1920235e-18	-5.026586e-20	0	0.96	128
0	0.6985656	0.698537	0	1.1805061e-18	-5.020116e-20	0.7853982	0.96	128
0	0.9891695	-3.2229405e-08	0	1.1901411e-18	-5.013902e-20	0	0.95	128
0	0.69871897	0.69869214	0	1.1812484e-18	-5.0085763e-20	0.7853982	0.95	128
0	0.988769	-2.0503352e-08	0	1.1773177e-18	-4.9612474e-20	0	0.94	128
0	0.6993757	0.69935375	0	1.1826986e-18	-4.962663e-20	0.7853982	0.94	128
0	0.9887693	-2.4356936e-08	0	1.1773175e-18	-4.961249e-20	0	0.93	128
0	0.6993752	0.69935435	0	1.1826984e-18	-4.9626636e-20	0.7853982	0.93	128
0	0.9886573	-2.3497986e-08	0	1.1727548e-18	-4.935378e-20	0	0.92	128
0	0.6993625	0.69933265	0	1.1796027e-18	-4.9372214e-20	0.7853982	0.92	128
0	0.9886011	-2.6632474e-08	0	1.1702606e-18	-4.9224426e-20	0	0.91	128
0	0.6994683	0.6994361	0	1.1795819e-18	-4.9252986e-20	0.7853982	0.91	128
0	0.98895776	-2.3720412e-08	0	1.1707722e-18	-4.892572e-20	0	0.9	128
0	0.69993895	0.69992024	0	1.1830595e-18	-4.8969855e-20	0.7853982	0.9	128
0	0.98826087	-1.4557214e-08	0	1.1575763e-18	-4.863825e-20	0	0.89	128
0	0.70031637	0.7002799	0	1.1819744e-18	-4.87421e-20	0.7853982	0.89	128
0	0.9882066	-1.2181262e-08	0	1.1551911e-18	-4.8509086e-20	0	0.88	128
0	0.7003704	0.70035636	0	1.1815647e-18	-4.861987e-20	0.7853982	0.88	128
0	0.98825866	-1.7730434e-08	0	1.154128e-18	-4.8385145e-20	0	0.87	128
0	0.70033723	0.7003071	0	1.1793665e-18	-4.8490235e-20	0.7853982	0.87	128
0	0.9886148	-2.1999284e-08	0	1.1561357e-18	-4.81495e-20	0	0.86	128
0	0.7006767	0.70066047	0	1.181912e-18	-4.8260554e-20	0.7853982	0.86	128
0	0.9878652	-9.81671e-09	0	1.1372087e-18	-4.748076e-20	0	0.85	128
0	0.7014308	0.7013984	0	1.1806021e-18	-4.7677085e-20	0.7853982	0.85	128
0	0.98779166	-1.8810479e-08	0	1.1342705e-18	-4.7350784e-20	0	0.84	128
0	0.70135415	0.70132273	0	1.1780214e-18	-4.7544955e-20	0.7853982	0.84	128
0	0.9880909	-9.5572625e-09	0	1.1380061e-18	-4.730189e-20	0	0.83	128
0	0.7014715	0.70144504	0	1.1795292e-18	-4.748959e-20	0.7853982	0.83	128
0	0.9881295	-1.9798115e-08	0	1.1356409e-18	-4.705078e-20	0	0.82	128
0	0.70176846	0.7017411	0	1.1800719e-18	-4.72556e-20	0.7853982	0.82	128
0	0.9881405	-1.1758261e-08	0	1.1343899e-18	-4.692482e-20	0	0.81	128
0	0.70198613	0.7019645	0	1.1807496e-18	-4.714338e-20	0.7853982	0.81	128
0	0.98741555	-1.4774278e-08	0	1.1173125e-18	-4.6384835e-20	0	0.8	128
0	0.7025832	0.70255226	0	1.1789402e-18	-4.667445e-20	0.7853982	0.8	128
0	0.98788726	-1.0914896e-08	0	1.1191338e-18	-4.602765e-20	0	0.79	128
0	0.70279056	0.7027696	0	1.1772396e-18	-4.6306905e-20	0.7853982	0.79	128
0	0.9879124	-1.7405213e-08	0	1.1183567e-18	-4.5902365e-20	0	0.78	128
0	0.7030157	0.70299315	0	1.1777687e-18	-4.6194425e-20	0.7853982	0.78	128
0	0.98797894	-2.5341237e-08	0	1.117088e-18	-4.5778996e-20	0	0.77	128
0	0.702954	0.702929	0	1.1753289e-18	-4.606305e-20	0.7853982	0.77	128
0	0.9882091	-2.391044e-08	0	1.1147819e-18	-4.5346956e-20	0	0.76	128
0	0.7032659	0.7032371	0	1.1737933e-18	-4.563781e-20	0.7853982	0.76	128
0	0.98755556	-2.0117621e-08	0	1.0976667e-18	-4.468492e-20	0	0.75	128
0	0.70403546	0.7040058	0	1.1715764e-18	-4.505051e-20	0.7853982	0.75	128
0	0.98755574	-2.013343e-08	0	1.0976668e-18	-4.468493e-20	0	0.74	128
0	0.70403296	0.70400816	0	1.1715763e-18	-4.505051e-20	0.7853982	0.74	128
0	0.98755914	-1.847057e-08	0	1.0966357e-18	-4.4558665e-20	0	0.73	128
0	0.70423824	0.7042176	0	1.1717175e-18	-4.4936306e-20	0.7853982	0.73	128
0	0.9878946	-1.8988855e-08	0	1.09797e-18	-4.4194454e-20	0	0.72	128
0	0.70467365	0.7046523	0	1.1720708e-18	-4.4581384e-20	0.7853982	0.72	128
0	0.9879011	-2.7358103e-08	0	1.095905e-18	-4.394184e-20	0	0.71	128
0	0.7050342	0.70500684	0	1.1719201e-18	-4.434877e-20	0.7853982	0.71	128
0	0.9881742	-1.695547e-08	0	1.0963017e-18	-4.363778e-20	0	0.7	128
0	0.70534134	0.70532286	0	1.1721687e-18	-4.404917e-20	0.7853982	0.7	128
0	0.9875433	-1.9143853e-08	0	1.0820589e-18	-4.32307e-20	0	0.69	128
0	0.7056886	0.7056623	0	1.1683393e-18	-4.368739e-20	0.7853982	0.69	128
0	0.9876138	-1.7087984e-08	0	1.079136e-18	-4.2854544e-20	0	0.68	128
0	0.705977	0.70595825	0	1.1661351e-18	-4.33221e-20	0.7853982	0.68	128
0	0.98808014	-2.0655404e-08	0	1.0828785e-18	-4.249535e-20	0	0.67	128
0	0.7061767	0.7061564	0	1.1635761e-18	-4.2950804e-20	0.7853982	0.67	128
0	0.9880145	-1.2585365e-08	0	1.0802997e-18	-4.236607e-20	0	0.66	128
0	0.70628446	0.7062623	0	1.1628161e-18	-4.2829464e-20	0.7853982	0.66	128
0	0.9883384	-2.1193577e-08	0	1.0799487e-18	-4.1810665e-20	0	0.65	128
0	0.70660365	0.70658475	0	1.1599889e-18	-4.2273333e-20	0.7853982	0.65	128
0	0.98779315	-1.605856e-08	0	1.0650913e-18	-4.1408293e-20	0	0.64	128
0	0.7067635	0.7067492	0	1.1551556e-18	-4.1899225e-20	0.7853982	0.64	128
0	0.98784965	-1.4249666e-08	0	1.0638619e-18	-4.1031325e-20	0	0.63	128
0	0.70678157	0.7067791	0	1.1516643e-18	-4.1516822e-20	0.7853982	0.63	128
0	0.9879313	-2.0861625e-08	0	1.0603194e-18	-4.0781804e-20	0	0.62	128
0	0.70679355	0.70679	0	1.1475657e-18	-4.1261604e-20	0.7853982	0.62	128
0	0.98833567	-1.2575041e-08	0	1.0656279e-18	-4.041898e-20	0	0.61	128
0	0.70658195	0.70655704	0	1.1441508e-18	-4.0864923e-20	0.7853982	0.61	128
0	0.98874134	-1.70576e-08	0	1.0678107e-18	-4.011917e-20	0	0.6	128
0	0.7064623	0.7064466	0	1.1419134e-18	-4.053857e-20	0.7853982	0.6	128
0	0.98863244	-1.4731559e-08	0	1.0613508e-18	-3.960857e-20	0	0.59	128
0	0.7059462	0.7059093	0	1.1345106e-18	-3.9997197e-20	0.7853982	0.59	128
0	0.98823214	-1.5480985e-08	0	1.0472785e-18	-3.9213053e-20	0	0.58	128
0	0.7057936	0.70575166	0	1.128264e-18	-3.9605133e-20	0.7853982	0.58	128
0	0.98844934	-2.0601341e-08	0	1.0484256e-18	-3.8842104e-20	0	0.57	128
0	0.70496005	0.70489043	0	1.1226463e-18	-3.917476e-20	0.7853982	0.57	128
0	0.9888457	-1.1669104e-08	0	1.0507929e-18	-3.8477964e-20	0	0.56	128
0	0.7042674	0.7042171	0	1.1160639e-18	-3.875436e-20	0.7853982	0.56	128
0	0.98926735	-1.8163107e-08	0	1.0555697e-18	-3.8177804e-20	0	0.55	128
0	0.7031528	0.70309126	0	1.1110899e-18	-3.8374524e-20	0.7853982	0.55	128
0	0.9891818	-1.8091137e-08	0	1.0491107e-18	-3.7668044e-20	0	0.54	128
0	0.70150524	0.7014089	0	1.1000102e-18	-3.777575e-20	0.7853982	0.54	128
0	0.9892078	-2.0564482e-08	0	1.0484922e-18	-3.754242e-20	0	0.53	128
0	0.7010691	0.7009816	0	1.0973844e-18	-3.7625596e-20	0.7853982	0.53	128
0	0.9893268	-1.54443e-08	0	1.0418149e-18	-3.6913762e-20	0	0.52	128
0	0.69898576	0.69889617	0	1.0841595e-18	-3.688111e-20	0.7853982	0.52	128
0	0.9895381	-1.67378e-08	0	1.036956e-18	-3.628834e-20	0	0.51	128
0	0.6958127	0.6957383	0	1.0681348e-18	-3.608434e-20	0.7853982	0.51	128
0	0.9898579	-1.207593e-08	0	1.0392468e-18	-3.5856612e-20	0	0.5	128
0	0.6928756	0.69280356	0	1.0549779e-18	-3.5493115e-20	0.7853982	0.5	128
0	0.98998153	-1.426254e-08	0	1.0372715e-18	-3.5480937e-20	0	0.49	128
0	0.6908238	0.69075304	0	1.0447671e-18	-3.50129e-20	0.7853982	0.49	128
0	0.99015284	-1.5844252e-08	0	1.0368885e-18	-3.510686e-20	0	0.48	128
0	0.68825394	0.6882029	0	1.0327825e-18	-3.4509397e-20	0.7853982	0.48	128
0	0.99067366	-1.9868782e-08	0	1.0426217e-18	-3.474491e-20	0	0.47	128
0	0.685164	0.6851134	0	1.0210527e-18	-3.3982395e-20	0.7853982	0.47	128
0	0.9910882	-1.4158878e-08	0	1.0395999e-18	-3.4061724e-20	0	0.46	128
0	0.6818263	0.681777	0	1.0015882e-18	-3.313808e-20	0.7853982	0.46	128
0	0.99114114	-1.5576413e-08	0	1.0352987e-18	-3.3682943e-20	0	0.45	128
0	0.6798929	0.679845	0	9.902143e-19	-3.267493e-20	0.7853982	0.45	128
0	0.9912282	-1.8427267e-08	0	1.0206564e-18	-3.292464e-20	0	0.44	128
0	0.6786557	0.6786112	0	9.72476e-19	-3.1878478e-20	0.7853982	0.44	128
0	0.9919369	-2.9282896e-08	0	1.0287333e-18	-3.24403e-20	0	0.43	128
0	0.67357343	0.6735405	0	9.523887e-19	-3.1152304e-20	0.7853982	0.43	128
0	0.9923728	-3.2806113e-08	0	1.0333152e-18	-3.2137004e-20	0	0.42	128
0	0.6707338	0.6707044	0	9.408645e-19	-3.071752e-20	0.7853982	0.42	128
0	0.992438	-1.8848914e-08	0	1.0232045e-18	-3.137692e-20	0	0.41	128
0	0.66718024	0.6671527	0	9.150848e-19	-2.9830204e-20	0.7853982	0.41	128
0	0.9926509	-2.1882263e-08	0	1.0222943e-18	-3.1002477e-20	0	0.4	128
0	0.66478574	0.664759	0	9.023549e-19	-2.9362143e-20	0.7853982	0.4	128
0	0.99351716	-2.8489119e-08	0	1.0305688e-18	-3.0393682e-20	0	0.39	128
0	0.6593118	0.6592918	0	8.791838e-19	-2.8523785e-20	0.7853982	0.39	128
0	0.99386716	-3.274459e-08	0	1.0310109e-18	-2.995913e-20	0	0.38	128
0	0.65611804	0.6561001	0	8.608587e-19	-2.7969965e-20	0.7853982	0.38	128
0	0.99392813	-1.7660934e-08	0	1.0233031e-18	-2.945208e-20	0	0.37	128
0	0.6547723	0.6547547	0	8.4551957e-19	-2.7438502e-20	0.7853982	0.37	128
0	0.99411166	-2.4450847e-08	0	1.0077955e-18	-2.8566792e-20	0	0.36	128
0	0.6526067	0.6525909	0	8.174646e-19	-2.6520855e-20	0.7853982	0.36	128
0	0.994951	-3.0507678e-08	0	1.0183373e-18	-2.80815e-20	0	0.35	128
0	0.6468733	0.6468622	0	7.956037e-19	-2.581957e-20	0.7853982	0.35	128
0	0.9953323	-3.609197e-08	0	1.0194615e-18	-2.7646354e-20	0	0.34	128
0	0.64417243	0.6441623	0	7.791942e-19	-2.5303665e-20	0.7853982	0.34	128
0	0.9954175	-1.8714312e-08	0	1.0098487e-18	-2.701165e-20	0	0.33	128
0	0.642626	0.6426156	0	7.5816035e-19	-2.4661275e-20	0.7853982	0.33	128
0	0.99573773	-2.4794225e-08	0	1.0090081e-18	-2.6510525e-20	0	0.32	128
0	0.63940525	0.63939625	0	7.404065e-19	-2.4074733e-20	0.7853982	0.32	128
0	0.9968144	-2.7190922e-08	0	1.0209436e-18	-2.570984e-20	0	0.31	128
0	0.6315054	0.63150036	0	7.0646627e-19	-2.3034318e-20	0.7853982	0.31	128
0	0.9967738	-4.167138e-08	0	1.009848e-18	-2.519844e-20	0	0.3	128
0	0.631767	0.63176143	0	6.9056605e-19	-2.2586406e-20	0.7853982	0.3	128
0	0.99689114	-2.6240675e-08	0	1.0044691e-18	-2.4691e-20	0	0.29	128
0	0.63012224	0.6301165	0	6.7490866e-19	-2.2071345e-20	0.7853982	0.29	128
0	0.9973642	-2.661635e-08	0	9.998676e-19	-2.380908e-20	0	0.28	128
0	0.6258908	0.6258866	0	6.457926e-19	-2.113007e-20	0.7853982	0.28	128
0	0.99796563	-1.7000495e-08	0	1.0034217e-18	-2.312087e-20	0	0.27	128
0	0.6208294	0.620827	0	6.171556e-19	-2.0341126e-20	0.7853982	0.27	128
0	0.9979887	-2.8302152e-08	0	9.886877e-19	-2.248269e-20	0	0.26	128
0	0.6213723	0.6213688	0	6.056998e-19	-1.9796497e-20	0.7853982	0.26	128
0	0.99811286	-3.0763953e-08	0	9.718444e-19	-2.1591178e-20	0	0.25	128
0	0.62002856	0.620025	0	5.80714e-19	-1.8968025e-20	0.7853982	0.25	128
0	0.99887073	-2.6662352e-08	0	9.776399e-19	-2.0648658e-20	0	0.24	128
0	0.61109865	0.61109775	0	5.404846e-19	-1.7865226e-20	0.7853982	0.24	128
0	0.9988286	-1.75473e-08	0	9.677693e-19	-2.0136386e-20	0	0.23	128
0	0.61181474	0.61181325	0	5.273029e-19	-1.7443152e-20	0.7853982	0.23	128
0	0.99885714	-2.2460952e-08	0	9.616781e-19	-1.9625547e-20	0	0.22	128
0	0.6102602	0.6102577	0	5.1451187e-19	-1.6956942e-20	0.7853982	0.22	128
0	0.99912214	-1.0903835e-08	0	9.534072e-19	-1.8607654e-20	0	0.21	128
0	0.6048068	0.6048053	0	4.8187934e-19	-1.5929571e-20	0.7853982	0.21	128
0	0.999427	-1.4465435e-08	0	9.50148e-19	-1.7909733e-20	0	0.2	128
0	0.60052216	0.6005218	0	4.5536913e-19	-1.5218852e-20	0.7853982	0.2	128
0	0.99939257	-1.2329752e-08	0	9.386537e-19	-1.7397427e-20	0	0.19	128
0	0.60169667	0.6016956	0	4.4357297e-19	-1.4812936e-20	0.7853982	0.19	128
0	0.99937886	-1.2738904e-08	0	9.233591e-19	-1.6501744e-20	0	0.18	128
0	0.60044384	0.6004418	0	4.2247676e-19	-1.4021238e-20	0.7853982	0.18	128
0	0.99975085	-1.3053974e-08	0	9.203566e-19	-1.5420156e-20	0	0.17	128
0	0.5896986	0.58969855	0	3.806891e-19	-1.2862995e-20	0.7853982	0.17	128
0	0.99972683	-1.0183593e-08	0	9.088228e-19	-1.4907927e-20	0	0.16	128
0	0.59153706	0.5915367	0	3.724583e-19	-1.2474775e-20	0.7853982	0.16	128
0	0.99968755	-6.2959957e-09	0	8.818804e-19	-1.4011622e-20	0	0.15	128
0	0.5929702	0.59296864	0	3.5334423e-19	-1.1753613e-20	0.7853982	0.15	128
0	0.9999049	-9.199115e-09	0	8.801761e-19	-1.2926769e-20	0	0.14	128
0	0.57732767	0.57732743	0	3.0918566e-19	-1.0555253e-20	0.7853982	0.14	128
0	0.9998976	-4.394378e-09	0	8.6427005e-19	-1.2414729e-20	0	0.13	128
0	0.58023804	0.5802379	0	3.02184e-19	-1.0188328e-20	0.7853982	0.13	128
0	0.9998808	-5.185009e-09	0	8.326235e-19	-1.1518627e-20	0	0.12	128
0	0.58479774	0.58479744	0	2.892628e-19	-9.527371e-21	0.7853982	0.12	128
0	0.9999685	-1.4008278e-09	0	8.1819805e-19	-1.0175682e-20	0	0.11	128
0	0.5652154	0.5652152	0	2.3685037e-19	-8.134035e-21	0.7853982	0.11	128
0	0.99829566	-1.644266e-08	0	5.387667e-19	-1.2969858e-20	0	1	64
0	0.7051982	0.70519537	0	5.336975e-19	-1.2956908e-20	0.7853982	1	64
0	0.99829584	-1.769054e-08	0	5.3876677e-19	-1.296986e-20	0	0.99	64
0	0.7051981	0.7051956	0	5.336975e-19	-1.2956906e-20	0.7853982	0.99	64
0	0.9982594	-2.06003e-08	0	5.3557236e-19	-1.284161e-20	0	0.98	64
0	0.70536286	0.70536	0	5.3212493e-19	-1.28322475e-20	0.7853982	0.98	64
0	0.9982594	-2.173086e-08	0	5.3557236e-19	-1.2841609e-20	0	0.97	64
0	0.7053627	0.7053602	0	5.3212493e-19	-1.2832246e-20	0.7853982	0.97	64
0	0.9982477	-1.9459494e-08	0	5.321479e-19	-1.2713683e-20	0	0.96	64
0	0.7054258	0.7054226	0	5.2927157e-19	-1.2705694e-20	0.7853982	0.96	64
0	0.9981886	-2.0517462e-08	0	5.287621e-19	-1.2585163e-20	0	0.95	64
0	0.70561874	0.7056155	0	5.279014e-19	-1.258144e-20	0.7853982	0.95	64
0	0.997863	-1.4738776e-08	0	5.2296235e-19	-1.245333e-20	0	0.94	64
0	0.7058255	0.70582247	0	5.2551854e-19	-1.245736e-20	0.7853982	0.94	64
0	0.997863	-1.2799715e-08	0	5.2296235e-19	-1.245333e-20	0	0.93	64
0	0.70582557	0.70582235	0	5.255186e-19	-1.245736e-20	0.7853982	0.93	64
0	0.9978631	-1.41465515e-08	0	5.2296235e-19	-1.24533326e-20	0	0.92	64
0	0.70582557	0.70582235	0	5.2551854e-19	-1.2457359e-20	0.7853982	0.92	64
0	0.997863	-1.5713084e-08	0	5.2296235e-19	-1.245333e-20	0	0.91	64
0	0.70582515	0.70582277	0	5.2551854e-19	-1.2457359e-20	0.7853982	0.91	64
0	0.997863	-1.5340554e-08	0	5.229623e-19	-1.245333e-20	0	0.9	64
0	0.70582557	0.7058225	0	5.2551854e-19	-1.245736e-20	0.7853982	0.9	64
0	0.99786294	-1.5990093e-08	0	5.229623e-19	-1.245333e-20	0	0.89	64
0	0.7058253	0.7058225	0	5.255186e-19	-1.2457358e-20	0.7853982	0.89	64
0	0.99801064	-1.5716672e-08	0	5.2066677e-19	-1.2327429e-20	0	0.88	64
0	0.70580083	0.70579875	0	5.22088e-19	-1.232917e-20	0.7853982	0.88	64
0	0.99799573	-1.3048268e-08	0	5.1759907e-19	-1.21995e-20	0	0.87	64
0	0.7059406	0.7059385	0	5.202081e-19	-1.2203823e-20	0.7853982	0.87	64
0	0.99820936	-1.5489364e-08	0	5.1837367e-19	-1.2138226e-20	0	0.86	64
0	0.7060493	0.7060468	0	5.206529e-19	-1.2141794e-20	0.7853982	0.86	64
0	0.99769455	-9.333254e-09	0	5.0786656e-19	-1.18765575e-20	0	0.85	64
0	0.7063986	0.7063978	0	5.1557976e-19	-1.1892071e-20	0.7853982	0.85	64
0	0.99769455	-1.1726653e-08	0	5.078666e-19	-1.1876555e-20	0	0.84	64
0	0.7063989	0.7063974	0	5.155797e-19	-1.1892073e-20	0.7853982	0.84	64
0	0.99769443	-1.3158687e-08	0	5.078665e-19	-1.1876555e-20	0	0.83	64
0	0.7063986	0.7063978	0	5.155797e-19	-1.1892071e-20	0.7853982	0.83	64
0	0.99769455	-1.0615074e-08	0	5.078665e-19	-1.1876555e-20	0	0.82	64
0	0.7063991	0.7063974	0	5.155797e-19	-1.1892071e-20	0.7853982	0.82	64
0	0.9976654	-1.1398578e-08	0	5.0398166e-19	-1.1748508e-20	0	0.81	64
0	0.70642054	0.70641863	0	5.120983e-19	-1.1764555e-20	0.7853982	0.81	64
0	0.9976654	-1.3494054e-08	0	5.0398166e-19	-1.1748508e-20	0	0.8	64
0	0.7064204	0.70641863	0	5.120983e-19	-1.1764556e-20	0.7853982	0.8	64
0	0.9976652	-1.3423192e-08	0	5.039817e-19	-1.1748508e-20	0	0.79	64
0	0.70642054	0.7064186	0	5.120983e-19	-1.1764555e-20	0.7853982	0.79	64
0	0.99795145	-1.909723e-08	0	5.0445925e-19	-1.162414e-20	0	0.78	64
0	0.70660645	0.7066056	0	5.1202154e-19	-1.1639751e-20	0.7853982	0.78	64
0	0.9979516	-1.6702401e-08	0	5.044593e-19	-1.162414e-20	0	0.77	64
0	0.7066065	0.7066055	0	5.1202154e-19	-1.1639751e-20	0.7853982	0.77	64
0	0.997937	-1.2790164e-08	0	5.017661e-19	-1.1496236e-20	0	0.76	64
0	0.7067503	0.70674974	0	5.103999e-19	-1.1514188e-20	0.7853982	0.76	64
0	0.9974423	-1.0927166e-08	0	4.9058903e-19	-1.123519e-20	0	0.75	64
0	0.7069214	0.70692104	0	5.0354697e-19	-1.1261044e-20	0.7853982	0.75	64
0	0.9974423	-1.14087015e-08	0	4.9058903e-19	-1.123519e-20	0	0.74	64
0	0.70692134	0.7069211	0	5.035469e-19	-1.1261045e-20	0.7853982	0.74	64
0	0.99769497	-1.1851745e-08	0	4.9204255e-19	-1.1174185e-20	0	0.73	64
0	0.7069747	0.7069746	0	5.03686e-19	-1.1197907e-20	0.7853982	0.73	64
0	0.99769497	-1.4427517e-08	0	4.920426e-19	-1.1174185e-20	0	0.72	64
0	0.70697457	0.70697457	0	5.03686e-19	-1.1197907e-20	0.7853982	0.72	64
0	0.9976948	-1.3996448e-08	0	4.9204255e-19	-1.11741826e-20	0	0.71	64
0	0.7069747	0.7069746	0	5.03686e-19	-1.11979075e-20	0.7853982	0.71	64
0	0.9977619	-1.5654832e-08	0	4.9042474e-19	-1.104722e-20	0	0.7	64
0	0.7070401	0.70704025	0	5.019835e-19	-1.1070956e-20	0.7853982	0.7	64
0	0.99776196	-1.4077506e-08	0	4.9042474e-19	-1.104722e-20	0	0.69	64
0	0.7070401	0.70704025	0	5.0198355e-19	-1.1070958e-20	0.7853982	0.69	64
0	0.99776196	-1.0368366e-08	0	4.904247e-19	-1.104722e-20	0	0.68	64
0	0.70704	0.70704025	0	5.0198355e-19	-1.1070956e-20	0.7853982	0.68	64
0	0.99775463	-1.1742289e-08	0	4.878952e-19	-1.0919428e-20	0	0.67	64
0	0.70706826	0.70706856	0	4.99804e-19	-1.09434064e-20	0.7853982	0.67	64
0	0.99810624	-1.2469684e-08	0	4.860488e-19	-1.066776e-20	0	0.66	64
0	0.7070363	0.70703685	0	4.9570913e-19	-1.06869384e-20	0.7853982	0.66	64
0	0.9979964	-1.4223835e-08	0	4.8190855e-19	-1.05388424e-20	0	0.65	64
0	0.70699954	0.7070002	0	4.924988e-19	-1.0558402e-20	0.7853982	0.65	64
0	0.9976964	-1.47297525e-08	0	4.7492244e-19	-1.0407969e-20	0	0.64	64
0	0.70696706	0.7069679	0	4.8751694e-19	-1.0429945e-20	0.7853982	0.64	64
0	0.9976964	-1.2558571e-08	0	4.7492244e-19	-1.0407969e-20	0	0.63	64
0	0.70696706	0.7069678	0	4.87517e-19	-1.0429944e-20	0.7853982	0.63	64
0	0.99805593	-1.5726384e-08	0	4.7043824e-19	-1.0092343e-20	0	0.62	64
0	0.7067966	0.70679694	0	4.799322e-19	-1.0107568e-20	0.7853982	0.62	64
0	0.99805593	-1.4630016e-08	0	4.7043824e-19	-1.0092343e-20	0	0.61	64
0	0.7067966	0.70679694	0	4.799322e-19	-1.01075655e-20	0.7853982	0.61	64
0	0.99805593	-1.5372716e-08	0	4.7043824e-19	-1.0092343e-20	0	0.6	64
0	0.7067966	0.70679694	0	4.799321e-19	-1.0107568e-20	0.7853982	0.6	64
0	0.9980562	-1.5207672e-08	0	4.7043835e-19	-1.00923434e-20	0	0.59	64
0	0.70679647	0.7067968	0	4.799321e-19	-1.0107566e-20	0.7853982	0.59	64
0	0.99812824	-1.1659675e-08	0	4.6650614e-19	-9.8375516e-21	0	0.58	64
0	0.7062923	0.7062919	0	4.7396193e-19	-9.844645e-21	0.7853982	0.58	64
0	0.9981281	-1.24821415e-08	0	4.665062e-19	-9.8375516e-21	0	0.57	64
0	0.7062924	0.7062919	0	4.73962e-19	-9.844645e-21	0.7853982	0.57	64
0	0.9981281	-1.4114979e-08	0	4.665062e-19	-9.8375516e-21	0	0.56	64
0	0.7062924	0.70629185	0	4.7396193e-19	-9.844644e-21	0.7853982	0.56	64
0	0.9984544	-1.5062591e-08	0	4.6599054e-19	-9.585163e-21	0	0.55	64
0	0.7054728	0.7054712	0	4.6871564e-19	-9.5778056e-21	0.7853982	0.55	64
0	0.9984544	-1.4503797e-08	0	4.6599054e-19	-9.585163e-21	0	0.54	64
0	0.70547223	0.7054713	0	4.6871564e-19	-9.577803e-21	0.7853982	0.54	64
0	0.99868286	-1.6174603e-08	0	4.6589195e-19	-9.3956085e-21	0	0.53	64
0	0.70440084	0.7043977	0	4.6366994e-19	-9.371977e-21	0.7853982	0.53	64
0	0.99860555	-1.9853228e-08	0	4.6124496e-19	-9.26706e-21	0	0.52	64
0	0.70421463	0.7042113	0	4.593879e-19	-9.242023e-21	0.7853982	0.52	64
0	0.9984865	-1.6184172e-08	0	4.5432073e-19	-9.1381486e-21	0	0.51	64
0	0.70426136	0.704259	0	4.5358134e-19	-9.115156e-21	0.7853982	0.51	64
0	0.9985395	-1.0964507e-08	0	4.527419e-19	-9.010821e-21	0	0.5	64
0	0.703541	0.7035376	0	4.497613e-19	-8.978473e-21	0.7853982	0.5	64
0	0.9984371	-1.195309e-08	0	4.483844e-19	-8.882097e-21	0	0.49	64
0	0.70291775	0.70291066	0	4.443516e-19	-8.843254e-21	0.7853982	0.49	64
0	0.9984371	-1.2582905e-08	0	4.483844e-19	-8.8820966e-21	0	0.48	64
0	0.70291775	0.7029107	0	4.443516e-19	-8.843255e-21	0.7853982	0.48	64
0	0.99861246	-6.797975e-09	0	4.4889194e-19	-8.755835e-21	0	0.47	64
0	0.70173216	0.70172673	0	4.4061435e-19	-8.701323e-21	0.7853982	0.47	64
0	0.99861234	-4.7857744e-09	0	4.488919e-19	-8.7558344e-21	0	0.46	64
0	0.70173216	0.70172685	0	4.4061435e-19	-8.701323e-21	0.7853982	0.46	64
0	0.9988373	-1.4659444e-08	0	4.4462824e-19	-8.374253e-21	0	0.45	64
0	0.698343	0.6983334	0	4.2612165e-19	-8.280033e-21	0.7853982	0.45	64
0	0.9990811	-9.513818e-09	0	4.480491e-19	-8.312354e-21	0	0.44	64
0	0.6968251	0.69681567	0	4.2422917e-19	-8.198967e-21	0.7853982	0.44	64
0	0.9990811	-1.096095e-08	0	4.480491e-19	-8.312354e-21	0	0.43	64
0	0.6968252	0.69681615	0	4.242292e-19	-8.1989714e-21	0.7853982	0.43	64
0	0.9990794	-1.4784746e-08	0	4.456173e-19	-8.184458e-21	0	0.42	64
0	0.6955838	0.6955755	0	4.189664e-19	-8.0584565e-21	0.7853982	0.42	64
0	0.9990794	-1.6647391e-08	0	4.4561734e-19	-8.184458e-21	0	0.41	64
0	0.6955842	0.6955755	0	4.1896644e-19	-8.058457e-21	0.7853982	0.41	64
0	0.99902207	-7.252102e-09	0	4.3535777e-19	-7.800365e-21	0	0.4	64
0	0.6927704	0.6927649	0	4.0217514e-19	-7.649665e-21	0.7853982	0.4	64
0	0.99902207	-7.633791e-09	0	4.3535777e-19	-7.800365e-21	0	0.39	64
0	0.69277644	0.6927648	0	4.021751e-19	-7.649698e-21	0.7853982	0.39	64
0	0.99916786	-1.1641532e-08	0	4.361623e-19	-7.67361e-21	0	0.38	64
0	0.69024014	0.6902328	0	3.9681345e-19	-7.4967686e-21	0.7853982	0.38	64
0	0.9994107	-9.868751e-09	0	4.2902333e-19	-7.2917005e-21	0	0.37	64
0	0.68757224	0.68756485	0	3.8290395e-19	-7.0944026e-21	0.7853982	0.37	64
0	0.9995449	-1.2711294e-08	0	4.2437214e-19	-7.100767e-21	0	0.36	64
0	0.6858281	0.6858225	0	3.7368897e-19	-6.890194e-21	0.7853982	0.36	64
0	0.99950343	-1.11929594e-08	0	4.1908806e-19	-6.972537e-21	0	0.35	64
0	0.6853962	0.6853888	0	3.66655e-19	-6.7617774e-21	0.7853982	0.35	64
0	0.9994798	-1.0496962e-08	0	4.1579937e-19	-6.844437e-21	0	0.34	64
0	0.6839789	0.6839713	0	3.601969e-19	-6.6239808e-21	0.7853982	0.34	64
0	0.99947923	-9.295486e-09	0	4.1351524e-19	-6.7165e-21	0	0.33	64
0	0.6821325	0.68212485	0	3.5432357e-19	-6.4826205e-21	0.7853982	0.33	64
0	0.9994792	-9.738973e-09	0	4.1351537e-19	-6.7165e-21	0	0.32	64
0	0.68213224	0.682125	0	3.5432357e-19	-6.4826193e-21	0.7853982	0.32	64
0	0.9994767	-8.7784064e-09	0	4.078306e-19	-6.460617e-21	0	0.31	64
0	0.67905784	0.67905235	0	3.4185767e-19	-6.2075664e-21	0.7853982	0.31	64
0	0.99956936	-9.134487e-09	0	4.083001e-19	-6.333272e-21	0	0.3	64
0	0.67516935	0.6751635	0	3.3504134e-19	-6.0497995e-21	0.7853982	0.3	64
0	0.9998171	-9.105165e-09	0	4.074611e-19	-6.0149e-21	0	0.29	64
0	0.666273	0.66627043	0	3.1580352e-19	-5.6685795e-21	0.7853982	0.29	64
0	0.99979883	-8.326226e-09	0	4.0310548e-19	-5.886816e-21	0	0.28	64
0	0.66568464	0.6656815	0	3.0898378e-19	-5.5430694e-21	0.7853982	0.28	64
0	0.9997815	-9.954803e-09	0	3.9943717e-19	-5.7587418e-21	0	0.27	64
0	0.6647095	0.6647057	0	3.0288645e-19	-5.4146217e-21	0.7853982	0.27	64
0	0.9997815	-9.504665e-09	0	3.9943717e-19	-5.7587418e-21	0	0.26	64
0	0.6647098	0.66470605	0	3.0288642e-19	-5.4146245e-21	0.7853982	0.26	64
0	0.9997562	-1.0363671e-08	0	3.9062074e-19	-5.5026587e-21	0	0.25	64
0	0.6640787	0.66407406	0	2.9099077e-19	-5.169059e-21	0.7853982	0.25	64
0	0.99974966	-9.645841e-09	0	3.8805472e-19	-5.374655e-21	0	0.24	64
0	0.66153955	0.661535	0	2.8446542e-19	-5.0295437e-21	0.7853982	0.24	64
0	0.99980676	-4.8632502e-09	0	3.8624723e-19	-5.1190113e-21	0	0.23	64
0	0.6523283	0.6523272	0	2.6918031e-19	-4.723358e-21	0.7853982	0.23	64
0	0.99994045	-2.089097e-09	0	3.7556145e-19	-4.671722e-21	0	0.22	64
0	0.6431457	0.64314485	0	2.4264705e-19	-4.2493932e-21	0.7853982	0.22	64
0	0.99994045	-2.1018547e-09	0	3.7556145e-19	-4.671722e-21	0	0.21	64
0	0.64314574	0.6431449	0	2.4264705e-19	-4.2493936e-21	0.7853982	0.21	64
0	0.9999356	-1.8265728e-09	0	3.7035988e-19	-4.543708e-21	0	0.2	64
0	0.64401764	0.6440166	0	2.373723e-19	-4.1385744e-21	0.7853982	0.2	64
0	0.9999299	-1.8558964e-09	0	3.656034e-19	-4.4156904e-21	0	0.19	64
0	0.6442768	0.6442756	0	2.3225262e-19	-4.0236125e-21	0.7853982	0.19	64
0	0.9999232	-1.7479673e-09	0	3.612344e-19	-4.2876713e-21	0	0.18	64
0	0.643617	0.64361525	0	2.268178e-19	-3.902983e-21	0.7853982	0.18	64
0	0.99990875	-1.529621e-09	0	3.4519666e-19	-3.9036442e-21	0	0.17	64
0	0.641682	0.64167964	0	2.0913231e-19	-3.542778e-21	0.7853982	0.17	64
0	0.9999679	-1.3186681e-09	0	3.4068682e-19	-3.5198874e-21	0	0.16	64
0	0.61948395	0.61948335	0	1.8033498e-19	-3.0838097e-21	0.7853982	0.16	64
0	0.9999867	-1.9992092e-09	0	3.3328337e-19	-3.3279562e-21	0	0.15	64
0	0.61601317	0.6160129	0	1.7001943e-19	-2.8992668e-21	0.7853982	0.15	64
0	0.9999867	-1.9768218e-09	0	3.3328337e-19	-3.3279562e-21	0	0.14	64
0	0.61601377	0.6160135	0	1.7001943e-19	-2.89927e-21	0.7853982	0.14	64
0	0.9999866	-7.485505e-10	0	3.253738e-19	-3.1999569e-21	0	0.13	64
0	0.6193872	0.6193869	0	1.6718611e-19	-2.8030257e-21	0.7853982	0.13	64
0	0.9999856	-7.08615e-10	0	3.0074953e-19	-2.9439582e-21	0	0.12	64
0	0.6284548	0.6284545	0	1.6556046e-19	-2.6165359e-21	0.7853982	0.12	64
0	0.9999853	-1.488453e-09	0	2.8585043e-19	-2.6879606e-21	0	0.11	64
0	0.63319653	0.63319623	0	1.581169e-19	-2.4070362e-21	0.7853982	0.11	64
0	0.9999158	-5.4177898e-09	0	2.2491442e-19	-3.3277197e-21	0	1	32
0	0.7068897	0.70688975	0	2.2401607e-19	-3.3269784e-21	0.7853982	1	32
0	0.9999158	-5.4177898e-09	0	2.2491442e-19	-3.3277197e-21	0	0.99	32
0	0.7068897	0.7068897	0	2.240161e-19	-3.3269784e-21	0.7853982	0.99	32
0	0.9999158	-5.4177898e-09	0	2.2491442e-19	-3.3277197e-21	0	0.98	32
0	0.7068897	0.7068897	0	2.2401607e-19	-3.3269784e-21	0.7853982	0.98	32
0	0.9999158	-6.6356733e-09	0	2.2491442e-19	-3.3277197e-21	0	0.97	32
0	0.7068897	0.7068897	0	2.2401607e-19	-3.3269784e-21	0.7853982	0.97	32
0	0.9998973	-4.488975e-09	0	2.1983516e-19	-3.1996713e-21	0	0.96	32
0	0.70700043	0.70700043	0	2.1971437e-19	-3.1995187e-21	0.7853982	0.96	32
0	0.9998973	-4.488975e-09	0	2.1983516e-19	-3.1996713e-21	0	0.95	32
0	0.70700043	0.70700043	0	2.1971437e-19	-3.1995187e-21	0.7853982	0.95	32
0	0.99981207	-3.6872772e-09	0	2.1621067e-19	-3.1354105e-21	0	0.94	32
0	0.7070476	0.7070476	0	2.1671659e-19	-3.1357375e-21	0.7853982	0.94	32
0	0.99981207	-3.6872772e-09	0	2.1621067e-19	-3.1354105e-21	0	0.93	32
0	0.7070476	0.7070477	0	2.1671656e-19	-3.1357375e-21	0.7853982	0.93	32
0	0.99981207	-3.6872772e-09	0	2.1621067e-19	-3.1354105e-21	0	0.92	32
0	0.7070476	0.7070477	0	2.1671659e-19	-3.135738e-21	0.7853982	0.92	32
0	0.99981207	-3.6872772e-09	0	2.1621067e-19	-3.1354105e-21	0	0.91	32
0	0.7070476	0.7070476	0	2.1671659e-19	-3.1357375e-21	0.7853982	0.91	32
0	0.99981207	-3.6872772e-09	0	2.1621067e-19	-3.1354105e-21	0	0.9	32
0	0.7070476	0.7070477	0	2.1671659e-19	-3.1357375e-21	0.7853982	0.9	32
0	0.9998378	-5.914889e-09	0	2.1048026e-19	-3.0075126e-21	0	0.89	32
0	0.70705676	0.70705676	0	2.109072e-19	-3.0077872e-21	0.7853982	0.89	32
0	0.9998378	-5.914889e-09	0	2.1048026e-19	-3.0075126e-21	0	0.88	32
0	0.70705676	0.70705676	0	2.109072e-19	-3.0077872e-21	0.7853982	0.88	32
0	0.9998378	-5.914889e-09	0	2.1048026e-19	-3.0075126e-21	0	0.87	32
0	0.70705676	0.70705676	0	2.109072e-19	-3.0077872e-21	0.7853982	0.87	32
0	0.9998378	-5.914889e-09	0	2.1048026e-19	-3.0075126e-21	0	0.86	32
0	0.70705676	0.70705676	0	2.109072e-19	-3.0077872e-21	0.7853982	0.86	32
0	0.9998378	-5.914889e-09	0	2.1048026e-19	-3.0075126e-21	0	0.85	32
0	0.70705676	0.70705676	0	2.109072e-19	-3.0077872e-21	0.7853982	0.85	32
0	0.9998378	-5.914889e-09	0	2.1048026e-19	-3.0075126e-21	0	0.84	32
0	0.70705676	0.70705676	0	2.109072e-19	-3.0077872e-21	0.7853982	0.84	32
0	0.9998378	-5.914889e-09	0	2.1048026e-19	-3.0075126e-21	0	0.83	32
0	0.70705676	0.70705676	0	2.109072e-19	-3.0077872e-21	0.7853982	0.83	32
0	0.9998378	-5.914889e-09	0	2.1048026e-19	-3.0075126e-21	0	0.82	32
0	0.70705676	0.70705676	0	2.109072e-19	-3.0077872e-21	0.7853982	0.82	32
0	0.9998378	-5.914889e-09	0	2.1048026e-19	-3.0075126e-21	0	0.81	32
0	0.70705676	0.70705676	0	2.109072e-19	-3.0077872e-21	0.7853982	0.81	32
0	0.9998378	-5.914889e-09	0	2.1048026e-19	-3.0075126e-21	0	0.8	32
0	0.70705676	0.70705676	0	2.109072e-19	-3.0077872e-21	0.7853982	0.8	32
0	0.9998378	-5.914889e-09	0	2.1048026e-19	-3.0075126e-21	0	0.79	32
0	0.70705676	0.70705676	0	2.109072e-19	-3.0077872e-21	0.7853982	0.79	32
0	0.9998378	-5.914889e-09	0	2.1048026e-19	-3.0075126e-21	0	0.78	32
0	0.70705676	0.70705676	0	2.109072e-19	-3.0077872e-21	0.7853982	0.78	32
0	0.9998817	-7.0366593e-09	0	2.0691484e-19	-2.8796595e-21	0	0.77	32
0	0.7071033	0.7071034	0	2.0744948e-19	-2.8799862e-21	0.7853982	0.77	32
0	0.9998817	-7.0366593e-09	0	2.0691484e-19	-2.8796595e-21	0	0.76	32
0	0.7071033	0.7071034	0	2.0744948e-19	-2.8799862e-21	0.7853982	0.76	32
0	0.99975246	-2.869773e-09	0	1.9947899e-19	-2.7513188e-21	0	0.75	32
0	0.70708525	0.7070854	0	2.0059024e-19	-2.7519166e-21	0.7853982	0.75	32
0	0.99975246	-2.772309e-09	0	1.9947899e-19	-2.7513188e-21	0	0.74	32
0	0.70708525	0.7070854	0	2.0059024e-19	-2.7519166e-21	0.7853982	0.74	32
0	0.99975246	-2.772309e-09	0	1.9947899e-19	-2.7513188e-21	0	0.73	32
0	0.70708525	0.7070854	0	2.0059025e-19	-2.7519166e-21	0.7853982	0.73	32
0	0.99975246	-2.869773e-09	0	1.9947899e-19	-2.7513188e-21	0	0.72	32
0	0.70708525	0.7070854	0	2.0059025e-19	-2.7519166e-21	0.7853982	0.72	32
0	0.99975246	-2.869773e-09	0	1.9947899e-19	-2.7513188e-21	0	0.71	32
0	0.70708525	0.7070854	0	2.0059025e-19	-2.7519166e-21	0.7853982	0.71	32
0	0.99975246	-2.869773e-09	0	1.9947899e-19	-2.7513188e-21	0	0.7	32
0	0.70708525	0.7070854	0	2.0059024e-19	-2.7519166e-21	0.7853982	0.7	32
0	0.99975246	-2.772309e-09	0	1.9947899e-19	-2.7513188e-21	0	0.69	32
0	0.70708525	0.7070854	0	2.0059025e-19	-2.7519166e-21	0.7853982	0.69	32
0	0.9998316	-5.299669e-09	0	1.9874707e-19	-2.6875476e-21	0	0.68	32
0	0.70700556	0.70700574	0	1.9918592e-19	-2.6876152e-21	0.7853982	0.68	32
0	0.9998316	-5.299669e-09	0	1.9874707e-19	-2.6875476e-21	0	0.67	32
0	0.70700556	0.7070058	0	1.9918592e-19	-2.6876152e-21	0.7853982	0.67	32
0	0.9998316	-5.299669e-09	0	1.9874707e-19	-2.6875476e-21	0	0.66	32
0	0.70700556	0.70700574	0	1.9918592e-19	-2.6876156e-21	0.7853982	0.66	32