# t (s)	mx ()	my ()	mz ()	E_total (J)	E_Zeeman (J)	Angle (rad)	Roundness ()	Size (nm)
0	0.9923755	-1.4020304e-08	0	1.2571141e-18	-5.157177e-20	0	1	128
0	0.6987832	0.6987691	0	1.2187504e-18	-5.135575e-20	0.7853982	1	128
0	0.9923755	-1.4020304e-08	0	1.2571141e-18	-5.157177e-20	0	0.99	128
0	0.6987834	0.698769	0	1.2187504e-18	-5.1355754e-20	0.7853982	0.99	128
0	0.9923279	-2.2722418e-08	0	1.2504106e-18	-5.106123e-20	0	0.98	128
0	0.6992514	0.69923425	0	1.2198627e-18	-5.088374e-20	0.7853982	0.98	128
0	0.9923279	-2.2722418e-08	0	1.2504106e-18	-5.106123e-20	0	0.97	128
0	0.69925153	0.69923395	0	1.2198627e-18	-5.088374e-20	0.7853982	0.97	128
0	0.99217707	-3.2048728e-08	0	1.2423913e-18	-5.054547e-20	0	0.96	128
0	0.69933236	0.6993169	0	1.2148814e-18	-5.038333e-20	0.7853982	0.96	128
0	0.99214953	-2.734401e-08	0	1.2350159e-18	-5.003609e-20	0	0.95	128
0	0.69996494	0.6999439	0	1.2173597e-18	-4.992188e-20	0.7853982	0.95	128
0	0.99114347	-2.8312206e-08	0	1.215269e-18	-4.947789e-20	0	0.94	128
0	0.7006863	0.70066655	0	1.2160523e-18	-4.9466024e-20	0.7853982	0.94	128
0	0.99114317	-2.7853709e-08	0	1.215269e-18	-4.947787e-20	0	0.93	128
0	0.70068717	0.7006656	0	1.2160522e-18	-4.946603e-20	0.7853982	0.93	128
0	0.99114347	-2.8465038e-08	0	1.215269e-18	-4.947789e-20	0	0.92	128
0	0.7006864	0.70066625	0	1.2160523e-18	-4.9466024e-20	0.7853982	0.92	128
0	0.99114347	-2.8465038e-08	0	1.215269e-18	-4.947789e-20	0	0.91	128
0	0.7006864	0.70066625	0	1.2160522e-18	-4.946603e-20	0.7853982	0.91	128
0	0.99114347	-2.8312206e-08	0	1.215269e-18	-4.947789e-20	0	0.9	128
0	0.7006859	0.70066684	0	1.2160523e-18	-4.946603e-20	0.7853982	0.9	128
0	0.99114347	-3.2591515e-08	0	1.2152691e-18	-4.947789e-20	0	0.89	128
0	0.7006863	0.70066655	0	1.2160523e-18	-4.946603e-20	0.7853982	0.89	128
0	0.99153954	-2.6270053e-08	0	1.2130269e-18	-4.8989985e-20	0	0.88	128
0	0.70062554	0.7006082	0	1.2090721e-18	-4.895453e-20	0.7853982	0.88	128
0	0.9915086	-1.9114054e-08	0	1.2067517e-18	-4.848081e-20	0	0.87	128
0	0.7010442	0.701021	0	1.2089412e-18	-4.8475976e-20	0.7853982	0.87	128
0	0.99236757	-3.054738e-08	0	1.2150268e-18	-4.826876e-20	0	0.86	128
0	0.7014745	0.7014597	0	1.2143642e-18	-4.825206e-20	0.7853982	0.86	128
0	0.990577	-2.030884e-08	0	1.1788893e-18	-4.716732e-20	0	0.85	128
0	0.70276815	0.7027535	0	1.2090074e-18	-4.7323345e-20	0.7853982	0.85	128
0	0.9905771	-1.2497748e-08	0	1.1788892e-18	-4.716732e-20	0	0.84	128
0	0.7027721	0.7027503	0	1.2090074e-18	-4.732337e-20	0.7853982	0.84	128
0	0.990577	-2.030884e-08	0	1.1788893e-18	-4.716732e-20	0	0.83	128
0	0.70276845	0.7027537	0	1.2090074e-18	-4.7323365e-20	0.7853982	0.83	128
0	0.990577	-2.030884e-08	0	1.1788893e-18	-4.716732e-20	0	0.82	128
0	0.70277125	0.7027509	0	1.2090074e-18	-4.7323365e-20	0.7853982	0.82	128
0	0.9904614	-1.7958328e-08	0	1.1701068e-18	-4.66547e-20	0	0.81	128
0	0.7027597	0.7027364	0	1.2027472e-18	-4.6813644e-20	0.7853982	0.81	128
0	0.9904614	-1.4030577e-08	0	1.1701068e-18	-4.66547e-20	0	0.8	128
0	0.7027631	0.70273376	0	1.2027473e-18	-4.6813666e-20	0.7853982	0.8	128
0	0.9904614	-1.2957531e-08	0	1.1701069e-18	-4.66547e-20	0	0.79	128
0	0.7027631	0.70273376	0	1.2027472e-18	-4.6813666e-20	0.7853982	0.79	128
0	0.99136853	-1.2178834e-08	0	1.1785664e-18	-4.618985e-20	0	0.78	128
0	0.70360374	0.70359063	0	1.2082226e-18	-4.636075e-20	0.7853982	0.78	128
0	0.99136853	-1.2178834e-08	0	1.1785664e-18	-4.618985e-20	0	0.77	128
0	0.70360357	0.7035908	0	1.2082225e-18	-4.636075e-20	0.7853982	0.77	128
0	0.9913131	-4.967054e-09	0	1.1724246e-18	-4.567971e-20	0	0.76	128
0	0.7042862	0.7042728	0	1.2085634e-18	-4.5895754e-20	0.7853982	0.76	128
0	0.9896034	-1.4477833e-08	0	1.1352083e-18	-4.458757e-20	0	0.75	128
0	0.70506424	0.7050569	0	1.1976323e-18	-4.492562e-20	0.7853982	0.75	128
0	0.9896034	-1.24035235e-08	0	1.1352083e-18	-4.4587575e-20	0	0.74	128
0	0.7050642	0.7050569	0	1.1976323e-18	-4.492562e-20	0.7853982	0.74	128
0	0.9903773	-1.4305114e-08	0	1.1452399e-18	-4.4368905e-20	0	0.73	128
0	0.70542943	0.7054194	0	1.2007913e-18	-4.469341e-20	0.7853982	0.73	128
0	0.9903773	-1.4305114e-08	0	1.1452399e-18	-4.4368905e-20	0	0.72	128
0	0.70543015	0.7054187	0	1.2007913e-18	-4.469341e-20	0.7853982	0.72	128
0	0.9903773	-1.4305114e-08	0	1.1452399e-18	-4.4368905e-20	0	0.71	128
0	0.70543116	0.70541745	0	1.2007913e-18	-4.4693405e-20	0.7853982	0.71	128
0	0.990403	-2.1447336e-08	0	1.1422376e-18	-4.386297e-20	0	0.7	128
0	0.70597416	0.70596725	0	1.1991415e-18	-4.4216846e-20	0.7853982	0.7	128
0	0.990403	-2.1447336e-08	0	1.1422376e-18	-4.386297e-20	0	0.69	128
0	0.7059739	0.70596737	0	1.1991415e-18	-4.4216846e-20	0.7853982	0.69	128
0	0.990403	-2.1447336e-08	0	1.1422376e-18	-4.386297e-20	0	0.68	128
0	0.70597416	0.7059672	0	1.1991416e-18	-4.421684e-20	0.7853982	0.68	128
0	0.990337	-4.313494e-09	0	1.1365763e-18	-4.335299e-20	0	0.67	128
0	0.7063665	0.70636415	0	1.1967498e-18	-4.3730095e-20	0.7853982	0.67	128
0	0.99138963	-1.677496e-08	0	1.1416702e-18	-4.238389e-20	0	0.66	128
0	0.7067055	0.7067039	0	1.1922604e-18	-4.272769e-20	0.7853982	0.66	128
0	0.9911521	-1.9326354e-08	0	1.1311496e-18	-4.186627e-20	0	0.65	128
0	0.70683306	0.70683277	0	1.1881994e-18	-4.222364e-20	0.7853982	0.65	128
0	0.9899967	-7.770544e-09	0	1.1057071e-18	-4.1310586e-20	0	0.64	128
0	0.7069071	0.70690787	0	1.1767389e-18	-4.1716237e-20	0.7853982	0.64	128
0	0.9899967	-7.770544e-09	0	1.1057071e-18	-4.1310586e-20	0	0.63	128
0	0.7069071	0.70690775	0	1.176739e-18	-4.171624e-20	0.7853982	0.63	128
0	0.99099964	-1.9569564e-08	0	1.1049637e-18	-4.008395e-20	0	0.62	128
0	0.7065146	0.7065116	0	1.1610703e-18	-4.041404e-20	0.7853982	0.62	128
0	0.99099964	-1.9569564e-08	0	1.1049637e-18	-4.008395e-20	0	0.61	128
0	0.7065146	0.70651156	0	1.1610703e-18	-4.0414038e-20	0.7853982	0.61	128
0	0.99099964	-1.9569564e-08	0	1.1049637e-18	-4.008395e-20	0	0.6	128
0	0.7065142	0.7065118	0	1.1610704e-18	-4.0414038e-20	0.7853982	0.6	128
0	0.99099964	-2.3106232e-08	0	1.1049637e-18	-4.008395e-20	0	0.59	128
0	0.7065151	0.7065112	0	1.1610704e-18	-4.041404e-20	0.7853982	0.59	128
0	0.99101406	-1.465926e-08	0	1.0970862e-18	-3.906974e-20	0	0.58	128
0	0.7050279	0.70501095	0	1.1458658e-18	-3.9307623e-20	0.7853982	0.58	128
0	0.99101394	-7.2086785e-09	0	1.0970861e-18	-3.906974e-20	0	0.57	128
0	0.70502824	0.70501083	0	1.1458658e-18	-3.9307626e-20	0.7853982	0.57	128
0	0.99101406	-1.732018e-08	0	1.0970862e-18	-3.906974e-20	0	0.56	128
0	0.7050278	0.70501125	0	1.1458658e-18	-3.9307626e-20	0.7853982	0.56	128
0	0.9920421	-1.6341607e-08	0	1.1054585e-18	-3.809442e-20	0	0.55	128
0	0.7020093	0.7019826	0	1.1310566e-18	-3.8122454e-20	0.7853982	0.55	128
0	0.9920421	-1.5546878e-08	0	1.1054585e-18	-3.809442e-20	0	0.54	128
0	0.7020093	0.7019826	0	1.1310565e-18	-3.8122454e-20	0.7853982	0.54	128
0	0.99269676	-1.70299e-08	0	1.1122091e-18	-3.7357166e-20	0	0.53	128
0	0.6980295	0.69799685	0	1.1129762e-18	-3.714804e-20	0.7853982	0.53	128
0	0.9925901	-2.1992058e-08	0	1.1011333e-18	-3.684495e-20	0	0.52	128
0	0.69687814	0.6968486	0	1.1045296e-18	-3.6582266e-20	0.7853982	0.52	128
0	0.9920379	-1.6307915e-08	0	1.0791642e-18	-3.6316525e-20	0	0.51	128
0	0.69615316	0.6961254	0	1.0894467e-18	-3.6040195e-20	0.7853982	0.51	128
0	0.99215484	-2.2034696e-08	0	1.0764557e-18	-3.5812823e-20	0	0.5	128
0	0.6936457	0.6936046	0	1.0767496e-18	-3.54078e-20	0.7853982	0.5	128
0	0.99186563	-1.3239521e-08	0	1.0651131e-18	-3.5294546e-20	0	0.49	128
0	0.6913909	0.69133824	0	1.0612318e-18	-3.47918e-20	0.7853982	0.49	128
0	0.99186563	-1.3239521e-08	0	1.0651131e-18	-3.5294546e-20	0	0.48	128
0	0.6913915	0.6913373	0	1.0612319e-18	-3.479179e-20	0.7853982	0.48	128
0	0.9922844	-1.5227464e-08	0	1.0694343e-18	-3.48014e-20	0	0.47	128
0	0.68733495	0.6872863	0	1.0455247e-18	-3.4090126e-20	0.7853982	0.47	128
0	0.9922844	-1.5227464e-08	0	1.0694343e-18	-3.48014e-20	0	0.46	128
0	0.6873338	0.687288	0	1.0455246e-18	-3.409014e-20	0.7853982	0.46	128
0	0.9931857	-2.2977362e-08	0	1.0687498e-18	-3.330748e-20	0	0.45	128
0	0.6769429	0.67690724	0	9.964808e-19	-3.210457e-20	0.7853982	0.45	128
0	0.99410415	-3.1521687e-08	0	1.0850061e-18	-3.3083787e-20	0	0.44	128
0	0.6723062	0.6722813	0	9.852162e-19	-3.1641526e-20	0.7853982	0.44	128
0	0.99410415	-3.1521687e-08	0	1.0850061e-18	-3.3083787e-20	0	0.43	128
0	0.67230636	0.67228174	0	9.852162e-19	-3.164154e-20	0.7853982	0.43	128
0	0.99419594	-2.9569492e-08	0	1.0800592e-18	-3.2577814e-20	0	0.42	128
0	0.669675	0.6696516	0	9.697093e-19	-3.1032834e-20	0.7853982	0.42	128
0	0.99419594	-1.3154931e-08	0	1.0800592e-18	-3.2577814e-20	0	0.41	128
0	0.66967493	0.66965204	0	9.697093e-19	-3.1032844e-20	0.7853982	0.41	128
0	0.9942123	-1.5572935e-08	0	1.0576081e-18	-3.105124e-20	0	0.4	128
0	0.6643295	0.6643046	0	9.230282e-19	-2.9342035e-20	0.7853982	0.4	128
0	0.99421227	-1.3496543e-08	0	1.0576079e-18	-3.105124e-20	0	0.39	128
0	0.66432965	0.6643047	0	9.230282e-19	-2.9342035e-20	0.7853982	0.39	128
0	0.9947484	-1.3783574e-08	0	1.0630323e-18	-3.0558676e-20	0	0.38	128
0	0.65875906	0.65873986	0	9.02786e-19	-2.8619134e-20	0.7853982	0.38	128
0	0.9960225	-1.6927196e-08	0	1.0578519e-18	-2.9067925e-20	0	0.37	128
0	0.65264386	0.65263116	0	8.637599e-19	-2.6935922e-20	0.7853982	0.37	128
0	0.996569	-2.8258508e-08	0	1.0509096e-18	-2.8318506e-20	0	0.36	128
0	0.6485539	0.6485459	0	8.3361665e-19	-2.6062818e-20	0.7853982	0.36	128
0	0.99638844	-3.0212448e-08	0	1.0383949e-18	-2.7803224e-20	0	0.35	128
0	0.6488971	0.6488879	0	8.1613853e-19	-2.5606733e-20	0.7853982	0.35	128
0	0.9964028	-2.4997743e-08	0	1.0314794e-18	-2.7293464e-20	0	0.34	128
0	0.6473477	0.6473375	0	7.998288e-19	-2.5076848e-20	0.7853982	0.34	128
0	0.9965512	-2.0293962e-08	0	1.0272013e-18	-2.67873e-20	0	0.33	128
0	0.6449014	0.6448908	0	7.8435215e-19	-2.451512e-20	0.7853982	0.33	128
0	0.9965512	-2.0293962e-08	0	1.0272013e-18	-2.67873e-20	0	0.32	128
0	0.6449011	0.6448905	0	7.843522e-19	-2.451511e-20	0.7853982	0.32	128
0	0.99669623	-5.753914e-09	0	1.0161134e-18	-2.577058e-20	0	0.31	128
0	0.6415662	0.64155513	0	7.5241605e-19	-2.3459248e-20	0.7853982	0.31	128
0	0.9971711	-1.7911496e-08	0	1.0204684e-18	-2.5272305e-20	0	0.3	128
0	0.63519627	0.635188	0	7.3008626e-19	-2.2766447e-20	0.7853982	0.3	128
0	0.9985473	-2.0766512e-08	0	1.0337871e-18	-2.4029044e-20	0	0.29	128
0	0.6212888	0.6212871	0	6.7076195e-19	-2.1143446e-20	0.7853982	0.29	128
0	0.9984713	-3.223186e-08	0	1.0246002e-18	-2.3515997e-20	0	0.28	128
0	0.6220055	0.6220032	0	6.563688e-19	-2.0717448e-20	0.7853982	0.28	128
0	0.998439	-2.6573737e-08	0	1.0170311e-18	-2.3004035e-20	0	0.27	128
0	0.6221551	0.6221516	0	6.438209e-19	-2.027192e-20	0.7853982	0.27	128
0	0.998439	-2.210339e-08	0	1.0170311e-18	-2.3004035e-20	0	0.26	128
0	0.6221551	0.62215155	0	6.4382083e-19	-2.027192e-20	0.7853982	0.26	128
0	0.99836427	-1.8626451e-08	0	9.984799e-19	-2.1979987e-20	0	0.25	128
0	0.62375313	0.62374824	0	6.1963805e-19	-1.942068e-20	0.7853982	0.25	128
0	0.99841434	-2.0577794e-08	0	9.934603e-19	-2.1469903e-20	0	0.24	128
0	0.62145233	0.6214464	0	6.0466014e-19	-1.8899051e-20	0.7853982	0.24	128
0	0.9987999	-2.0302831e-08	0	9.931856e-19	-2.0455424e-20	0	0.23	128
0	0.610098	0.6100933	0	5.6325897e-19	-1.7670258e-20	0.7853982	0.23	128
0	0.9995834	-1.7146542e-08	0	9.827253e-19	-1.8680215e-20	0	0.22	128
0	0.59786505	0.59786433	0	4.9389564e-19	-1.5800859e-20	0.7853982	0.22	128
0	0.9995834	-1.265578e-08	0	9.827254e-19	-1.8680215e-20	0	0.21	128
0	0.5978659	0.5978653	0	4.9389564e-19	-1.5800883e-20	0.7853982	0.21	128
0	0.99954975	-1.73672e-08	0	9.719923e-19	-1.8167817e-20	0	0.2	128
0	0.6001222	0.6001216	0	4.8475405e-19	-1.542598e-20	0.7853982	0.2	128
0	0.9995148	-9.934108e-09	0	9.622342e-19	-1.765543e-20	0	0.19	128
0	0.60203373	0.60203284	0	4.7642925e-19	-1.5039192e-20	0.7853982	0.19	128
0	0.99948055	-8.284601e-09	0	9.533018e-19	-1.714309e-20	0	0.18	128
0	0.60318416	0.6031828	0	4.675389e-19	-1.4631174e-20	0.7853982	0.18	128
0	0.99941856	-4.1222474e-09	0	9.195338e-19	-1.560692e-20	0	0.17	128
0	0.6043603	0.6043567	0	4.3379435e-19	-1.334687e-20	0.7853982	0.17	128
0	0.9997871	-4.9444764e-09	0	9.188447e-19	-1.4077003e-20	0	0.16	128
0	0.5792971	0.57929593	0	3.5964665e-19	-1.1535026e-20	0.7853982	0.16	128
0	0.99991095	-8.955025e-09	0	9.07697e-19	-1.3310815e-20	0	0.15	128
0	0.57417434	0.574174	0	3.3464458e-19	-1.080941e-20	0.7853982	0.15	128
0	0.99991095	-8.955025e-09	0	9.07697e-19	-1.3310815e-20	0	0.14	128
0	0.57417446	0.57417405	0	3.3464458e-19	-1.080941e-20	0.7853982	0.14	128
0	0.99990827	-4.246831e-09	0	8.907731e-19	-1.2798825e-20	0	0.13	128
0	0.57734835	0.577348	0	3.3035345e-19	-1.04511185e-20	0.7853982	0.13	128
0	0.9999021	-7.1266424e-09	0	8.2489516e-19	-1.1774847e-20	0	0.12	128
0	0.5844235	0.5844231	0	3.3017674e-19	-9.7328575e-21	0.7853982	0.12	128
0	0.9998963	-4.1244284e-09	0	7.9309007e-19	-1.0750885e-20	0	0.11	128
0	0.59214985	0.5921496	0	3.2189263e-19	-9.004006e-21	0.7853982	0.11	128
0	0.99923635	2.0775657e-09	0	5.594653e-19	-1.3301835e-20	0	1	64
0	0.7052106	0.70520943	0	5.498826e-19	-1.3276292e-20	0.7853982	1	64
0	0.99923635	-3.5282797e-09	0	5.5946526e-19	-1.3301834e-20	0	0.99	64
0	0.7052106	0.7052093	0	5.4988263e-19	-1.3276292e-20	0.7853982	0.99	64
0	0.99923635	1.5044441e-09	0	5.594653e-19	-1.3301835e-20	0	0.98	64
0	0.7052106	0.7052093	0	5.4988263e-19	-1.3276292e-20	0.7853982	0.98	64
0	0.99923635	2.0775657e-09	0	5.594653e-19	-1.3301835e-20	0	0.97	64
0	0.7052106	0.7052093	0	5.4988263e-19	-1.3276292e-20	0.7853982	0.97	64
0	0.99917984	-1.31875275e-08	0	5.483774e-19	-1.2789502e-20	0	0.96	64
0	0.7059421	0.705941	0	5.448127e-19	-1.2778907e-20	0.7853982	0.96	64
0	0.99917984	-1.31875275e-08	0	5.483774e-19	-1.2789502e-20	0	0.95	64
0	0.7059421	0.705941	0	5.448127e-19	-1.2778907e-20	0.7853982	0.95	64
0	0.9986018	-9.864417e-09	0	5.368018e-19	-1.2526462e-20	0	0.94	64
0	0.7062873	0.70628595	0	5.3850864e-19	-1.2529451e-20	0.7853982	0.94	64
0	0.9986018	-9.864417e-09	0	5.368018e-19	-1.2526462e-20	0	0.93	64
0	0.70628744	0.7062859	0	5.385086e-19	-1.252945e-20	0.7853982	0.93	64
0	0.9986018	-9.864417e-09	0	5.368018e-19	-1.2526462e-20	0	0.92	64
0	0.70628744	0.7062859	0	5.385086e-19	-1.252945e-20	0.7853982	0.92	64
0	0.9986018	-1.31525555e-08	0	5.3680186e-19	-1.2526462e-20	0	0.91	64
0	0.70628744	0.7062859	0	5.385086e-19	-1.2529451e-20	0.7853982	0.91	64
0	0.9986018	-1.3266595e-08	0	5.368018e-19	-1.2526462e-20	0	0.9	64
0	0.70628744	0.7062859	0	5.385086e-19	-1.2529451e-20	0.7853982	0.9	64
0	0.9987616	-6.479627e-09	0	5.2509937e-19	-1.20171014e-20	0	0.89	64
0	0.70640975	0.7064094	0	5.2685067e-19	-1.2020136e-20	0.7853982	0.89	64
0	0.9987616	-6.479627e-09	0	5.2509937e-19	-1.20171014e-20	0	0.88	64
0	0.70640975	0.7064094	0	5.2685067e-19	-1.2020136e-20	0.7853982	0.88	64
0	0.9987618	-9.095257e-09	0	5.250994e-19	-1.20171014e-20	0	0.87	64
0	0.7064099	0.7064094	0	5.2685067e-19	-1.2020137e-20	0.7853982	0.87	64
0	0.9987616	-6.479627e-09	0	5.2509937e-19	-1.20171014e-20	0	0.86	64
0	0.70640975	0.7064094	0	5.2685067e-19	-1.2020136e-20	0.7853982	0.86	64
0	0.9987616	-6.479627e-09	0	5.2509937e-19	-1.20171014e-20	0	0.85	64
0	0.70640975	0.7064094	0	5.2685067e-19	-1.2020137e-20	0.7853982	0.85	64
0	0.9987618	-9.095257e-09	0	5.250994e-19	-1.20171014e-20	0	0.84	64
0	0.70640975	0.7064094	0	5.2685067e-19	-1.2020137e-20	0.7853982	0.84	64
0	0.9987616	-6.479627e-09	0	5.2509937e-19	-1.20171014e-20	0	0.83	64
0	0.70640975	0.7064094	0	5.2685067e-19	-1.2020136e-20	0.7853982	0.83	64
0	0.9987616	-6.479627e-09	0	5.2509937e-19	-1.20171014e-20	0	0.82	64
0	0.70640975	0.7064094	0	5.2685067e-19	-1.2020136e-20	0.7853982	0.82	64
0	0.9987616	-6.479627e-09	0	5.2509937e-19	-1.20171014e-20	0	0.81	64
0	0.70640975	0.7064094	0	5.2685067e-19	-1.2020136e-20	0.7853982	0.81	64
0	0.9987616	-6.479627e-09	0	5.2509937e-19	-1.20171014e-20	0	0.8	64
0	0.70640975	0.7064094	0	5.2685067e-19	-1.2020136e-20	0.7853982	0.8	64
0	0.9987616	-6.479627e-09	0	5.2509937e-19	-1.20171014e-20	0	0.79	64
0	0.70640975	0.7064094	0	5.2685067e-19	-1.2020136e-20	0.7853982	0.79	64
0	0.9987616	-6.479627e-09	0	5.2509937e-19	-1.20171014e-20	0	0.78	64
0	0.70640975	0.7064094	0	5.2685067e-19	-1.2020136e-20	0.7853982	0.78	64
0	0.9991401	-9.685754e-09	0	5.207285e-19	-1.1510094e-20	0	0.77	64
0	0.7069566	0.706957	0	5.238041e-19	-1.1517558e-20	0.7853982	0.77	64
0	0.9991401	-1.0141068e-08	0	5.2072845e-19	-1.1510094e-20	0	0.76	64
0	0.7069566	0.7069571	0	5.2380406e-19	-1.1517556e-20	0.7853982	0.76	64
0	0.9982639	-4.1151464e-09	0	4.9817485e-19	-1.09888885e-20	0	0.75	64
0	0.7070948	0.7070953	0	5.0734373e-19	-1.10078175e-20	0.7853982	0.75	64
0	0.9982639	-1.1825631e-08	0	4.9817485e-19	-1.09888885e-20	0	0.74	64
0	0.7070948	0.7070953	0	5.0734373e-19	-1.10078175e-20	0.7853982	0.74	64
0	0.9982639	-1.1825631e-08	0	4.9817485e-19	-1.09888885e-20	0	0.73	64
0	0.7070948	0.7070953	0	5.0734373e-19	-1.10078175e-20	0.7853982	0.73	64
0	0.9982639	-1.1825631e-08	0	4.9817485e-19	-1.09888885e-20	0	0.72	64
0	0.7070948	0.7070953	0	5.0734373e-19	-1.10078175e-20	0.7853982	0.72	64
0	0.9982639	-1.1825631e-08	0	4.9817485e-19	-1.09888885e-20	0	0.71	64
0	0.7070948	0.7070953	0	5.0734373e-19	-1.10078175e-20	0.7853982	0.71	64
0	0.9982639	-1.1825631e-08	0	4.9817485e-19	-1.09888885e-20	0	0.7	64
0	0.7070948	0.7070953	0	5.0734373e-19	-1.10078175e-20	0.7853982	0.7	64
0	0.9982639	-1.1825631e-08	0	4.9817485e-19	-1.09888885e-20	0	0.69	64
0	0.7070948	0.7070953	0	5.0734373e-19	-1.10078175e-20	0.7853982	0.69	64
0	0.9988013	-1.2328937e-08	0	5.0095376e-19	-1.0739112e-20	0	0.68	64
0	0.70689076	0.7068923	0	5.0571036e-19	-1.07487266e-20	0.7853982	0.68	64
0	0.9988013	-9.668016e-09	0	5.0095376e-19	-1.0739112e-20	0	0.67	64
0	0.70689064	0.7068923	0	5.0571036e-19	-1.07487266e-20	0.7853982	0.67	64
0	0.9988013	-1.2328937e-08	0	5.0095376e-19	-1.0739112e-20	0	0.66	64
0	0.70689076	0.70689213	0	5.057103e-19	-1.0748725e-20	0.7853982	0.66	64
0	0.9988013	-9.668016e-09	0	5.0095376e-19	-1.0739112e-20	0	0.65	64
0	0.70689064	0.70689225	0	5.0571036e-19	-1.0748727e-20	0.7853982	0.65	64
0	0.9988013	-1.2328937e-08	0	5.0095376e-19	-1.0739112e-20	0	0.64	64
0	0.70689064	0.7068923	0	5.0571036e-19	-1.07487266e-20	0.7853982	0.64	64
0	0.9988013	-1.2328937e-08	0	5.0095376e-19	-1.0739112e-20	0	0.63	64
0	0.70689076	0.7068923	0	5.0571036e-19	-1.07487266e-20	0.7853982	0.63	64
0	0.9988013	-9.668016e-09	0	5.0095376e-19	-1.0739112e-20	0	0.62	64
0	0.70689076	0.70689225	0	5.0571036e-19	-1.07487266e-20	0.7853982	0.62	64
0	0.9988013	-1.2328937e-08	0	5.0095376e-19	-1.0739112e-20	0	0.61	64
0	0.70689076	0.7068923	0	5.0571036e-19	-1.07487266e-20	0.7853982	0.61	64
0	0.9987577	-4.6100466e-09	0	4.9170904e-19	-1.0227279e-20	0	0.6	64
0	0.70596033	0.70596325	0	4.939598e-19	-1.02234184e-20	0.7853982	0.6	64
0	0.9987577	-4.6100466e-09	0	4.9170904e-19	-1.0227279e-20	0	0.59	64
0	0.7059603	0.70596325	0	4.939598e-19	-1.02234184e-20	0.7853982	0.59	64
0	0.9987577	-4.7963113e-09	0	4.917091e-19	-1.0227279e-20	0	0.58	64
0	0.7059603	0.7059633	0	4.9395985e-19	-1.02234184e-20	0.7853982	0.58	64
0	0.9987577	-4.7963113e-09	0	4.917091e-19	-1.0227279e-20	0	0.57	64
0	0.7059603	0.70596313	0	4.939598e-19	-1.02234184e-20	0.7853982	0.57	64
0	0.9987577	-4.7963113e-09	0	4.917091e-19	-1.0227279e-20	0	0.56	64
0	0.7059603	0.70596325	0	4.939598e-19	-1.02234184e-20	0.7853982	0.56	64
0	0.9987577	-4.6100466e-09	0	4.9170904e-19	-1.0227279e-20	0	0.55	64
0	0.70596033	0.70596325	0	4.939598e-19	-1.02234184e-20	0.7853982	0.55	64
0	0.9987577	-4.6100466e-09	0	4.9170904e-19	-1.0227279e-20	0	0.54	64
0	0.7059604	0.70596325	0	4.939598e-19	-1.02234184e-20	0.7853982	0.54	64
0	0.99841815	-8.1232026e-09	0	4.544851e-19	-9.201422e-21	0	0.53	64
0	0.70562077	0.70562166	0	4.5771894e-19	-9.1966385e-21	0.7853982	0.53	64
0	0.9989595	-7.012311e-09	0	4.526914e-19	-8.694944e-21	0	0.52	64
0	0.7023864	0.702386	0	4.438712e-19	-8.645893e-21	0.7853982	0.52	64
0	0.9989595	-3.780074e-09	0	4.526914e-19	-8.694944e-21	0	0.51	64
0	0.7023864	0.7023861	0	4.438712e-19	-8.645894e-21	0.7853982	0.51	64
0	0.9989595	-3.780074e-09	0	4.526914e-19	-8.694944e-21	0	0.5	64
0	0.7023864	0.702386	0	4.4387127e-19	-8.645893e-21	0.7853982	0.5	64
0	0.9989595	-3.780074e-09	0	4.526914e-19	-8.694944e-21	0	0.49	64
0	0.7023864	0.702386	0	4.438712e-19	-8.645893e-21	0.7853982	0.49	64
0	0.9994454	-2.3706392e-09	0	4.578161e-19	-8.443315e-21	0	0.48	64
0	0.69873095	0.6987307	0	4.367874e-19	-8.34793e-21	0.7853982	0.48	64
0	0.9994454	-2.3706392e-09	0	4.578161e-19	-8.443315e-21	0	0.47	64
0	0.69873095	0.69873077	0	4.367874e-19	-8.34793e-21	0.7853982	0.47	64
0	0.9994454	-2.3706392e-09	0	4.578161e-19	-8.443315e-21	0	0.46	64
0	0.6987308	0.6987307	0	4.367874e-19	-8.34793e-21	0.7853982	0.46	64
0	0.9994454	-2.3706392e-09	0	4.578161e-19	-8.443315e-21	0	0.45	64
0	0.69873095	0.6987307	0	4.367874e-19	-8.34793e-21	0.7853982	0.45	64
0	0.9994454	-2.3706392e-09	0	4.578161e-19	-8.443315e-21	0	0.44	64
0	0.69873095	0.6987307	0	4.367874e-19	-8.347929e-21	0.7853982	0.44	64
0	0.99928665	-1.982816e-09	0	4.440342e-19	-7.93034e-21	0	0.43	64
0	0.69498366	0.694981	0	4.1488937e-19	-7.799925e-21	0.7853982	0.43	64
0	0.99928665	-1.982816e-09	0	4.440342e-19	-7.93034e-21	0	0.42	64
0	0.6949837	0.6949811	0	4.1488937e-19	-7.799925e-21	0.7853982	0.42	64
0	0.99928665	-1.8025598e-10	0	4.440342e-19	-7.93034e-21	0	0.41	64
0	0.6949837	0.6949811	0	4.1488937e-19	-7.799925e-21	0.7853982	0.41	64
0	0.99928665	-1.982816e-09	0	4.440342e-19	-7.93034e-21	0	0.4	64
0	0.6949837	0.6949811	0	4.148894e-19	-7.799925e-21	0.7853982	0.4	64
0	0.99928665	-1.982816e-09	0	4.440342e-19	-7.93034e-21	0	0.39	64
0	0.6949837	0.6949811	0	4.148894e-19	-7.799925e-21	0.7853982	0.39	64
0	0.99928665	-1.8025598e-10	0	4.440342e-19	-7.93034e-21	0	0.38	64
0	0.6949834	0.694981	0	4.148894e-19	-7.799924e-21	0.7853982	0.38	64
0	0.99931663	-5.4594773e-09	0	4.369344e-19	-7.418927e-21	0	0.37	64
0	0.68775666	0.6877544	0	3.9239714e-19	-7.2208295e-21	0.7853982	0.37	64
0	0.99931663	-4.8171858e-09	0	4.369344e-19	-7.418927e-21	0	0.36	64
0	0.6877568	0.68775433	0	3.9239714e-19	-7.2208295e-21	0.7853982	0.36	64
0	0.99931663	-5.4594773e-09	0	4.369344e-19	-7.418927e-21	0	0.35	64
0	0.68775666	0.6877544	0	3.923971e-19	-7.220829e-21	0.7853982	0.35	64
0	0.99967927	-2.9664349e-09	0	4.380349e-19	-6.909784e-21	0	0.34	64
0	0.6735692	0.6735679	0	3.6544633e-19	-6.5841626e-21	0.7853982	0.34	64
0	0.99967927	-1.4832174e-09	0	4.380349e-19	-6.909784e-21	0	0.33	64
0	0.6735692	0.6735679	0	3.6544633e-19	-6.5841626e-21	0.7853982	0.33	64
0	0.9998626	-4.0357313e-09	0	4.2169448e-19	-6.143156e-21	0	0.32	64
0	0.6634753	0.66347456	0	3.2610422e-19	-5.7648854e-21	0.7853982	0.32	64
0	0.9998625	-3.1820189e-09	0	4.2169448e-19	-6.143156e-21	0	0.31	64
0	0.66347474	0.66347414	0	3.2610422e-19	-5.7648814e-21	0.7853982	0.31	64
0	0.9998626	-4.0357313e-09	0	4.2169448e-19	-6.143156e-21	0	0.3	64
0	0.6634752	0.6634746	0	3.261042e-19	-5.7648854e-21	0.7853982	0.3	64
0	0.9998625	-3.1820189e-09	0	4.2169448e-19	-6.143156e-21	0	0.29	64
0	0.66347474	0.66347414	0	3.2610422e-19	-5.7648814e-21	0.7853982	0.29	64
0	0.9998625	-3.1820189e-09	0	4.2169448e-19	-6.143156e-21	0	0.28	64
0	0.66347474	0.66347414	0	3.2610422e-19	-5.7648814e-21	0.7853982	0.28	64
0	0.9998625	-3.1820189e-09	0	4.2169448e-19	-6.143156e-21	0	0.27	64
0	0.66347456	0.6634739	0	3.261042e-19	-5.76488e-21	0.7853982	0.27	64
0	0.9998625	-3.1820189e-09	0	4.2169448e-19	-6.143156e-21	0	0.26	64
0	0.66347456	0.6634739	0	3.261042e-19	-5.76488e-21	0.7853982	0.26	64
0	0.99983126	-5.0799415e-10	0	4.0480004e-19	-5.63105e-21	0	0.25	64
0	0.6637766	0.663775	0	3.0474342e-19	-5.286875e-21	0.7853982	0.25	64
0	0.99983126	-1.8626451e-09	0	4.0480004e-19	-5.63105e-21	0	0.24	64
0	0.6637766	0.663775	0	3.0474344e-19	-5.286875e-21	0.7853982	0.24	64
0	0.99983126	-1.8626451e-09	0	4.0480004e-19	-5.63105e-21	0	0.23	64
0	0.6637766	0.663775	0	3.0474344e-19	-5.286875e-21	0.7853982	0.23	64
0	0.9997984	-3.8649888e-09	0	3.9060174e-19	-5.118968e-21	0	0.22	64
0	0.65841943	0.6584172	0	2.797305e-19	-4.7674583e-21	0.7853982	0.22	64
0	0.9997984	-3.8649888e-09	0	3.9060174e-19	-5.118968e-21	0	0.21	64
0	0.65841943	0.6584172	0	2.797305e-19	-4.7674583e-21	0.7853982	0.21	64
0	0.9998014	-5.6914157e-10	0	3.7971778e-19	-4.607085e-21	0	0.2	64
0	0.64438736	0.64438546	0	2.4875102e-19	-4.1992704e-21	0.7853982	0.2	64
0	0.99997723	-4.656613e-11	0	3.7248918e-19	-3.839913e-21	0	0.19	64
0	0.6003404	0.6003401	0	1.8864077e-19	-3.2601957e-21	0.7853982	0.19	64
0	0.99997723	1.5522043e-10	0	3.7248918e-19	-3.839913e-21	0	0.18	64
0	0.6003399	0.60033965	0	1.8864076e-19	-3.260193e-21	0.7853982	0.18	64
0	0.9999745	3.0447084e-10	0	3.227817e-19	-3.3279152e-21	0	0.17	64
0	0.6178146	0.6178143	0	1.8734403e-19	-2.9077452e-21	0.7853982	0.17	64
0	0.9999745	3.0447084e-10	0	3.227817e-19	-3.3279152e-21	0	0.16	64
0	0.61781466	0.6178143	0	1.8734403e-19	-2.9077456e-21	0.7853982	0.16	64
0	0.9999745	3.0447084e-10	0	3.227817e-19	-3.3279152e-21	0	0.15	64
0	0.6178146	0.6178143	0	1.8734403e-19	-2.9077456e-21	0.7853982	0.15	64
0	0.99997455	5.5521154e-10	0	3.227817e-19	-3.327915e-21	0	0.14	64
0	0.6178146	0.6178143	0	1.8734403e-19	-2.9077452e-21	0.7853982	0.14	64
0	0.9999745	3.0447084e-10	0	3.227817e-19	-3.3279152e-21	0	0.13	64
0	0.61781466	0.6178143	0	1.8734404e-19	-2.9077456e-21	0.7853982	0.13	64
0	0.9999745	3.0447084e-10	0	3.227817e-19	-3.3279152e-21	0	0.12	64
0	0.61781466	0.6178143	0	1.8734403e-19	-2.9077456e-21	0.7853982	0.12	64
0	0.9999745	3.0447084e-10	0	3.227817e-19	-3.3279152e-21	0	0.11	64
0	0.61781466	0.6178143	0	1.8734403e-19	-2.9077456e-21	0.7853982	0.11	64
0	0.99996465	-9.922167e-09	0	2.278462e-19	-3.3278825e-21	0	1	32
0	0.7069905	0.7069905	0	2.273569e-19	-3.3274526e-21	0.7853982	1	32
0	0.99996465	-9.922167e-09	0	2.278462e-19	-3.3278825e-21	0	0.99	32
0	0.7069905	0.7069905	0	2.273569e-19	-3.3274526e-21	0.7853982	0.99	32
0	0.99996465	-9.922167e-09	0	2.278462e-19	-3.3278825e-21	0	0.98	32
0	0.7069905	0.7069905	0	2.273569e-19	-3.3274526e-21	0.7853982	0.98	32
0	0.99996465	-9.922167e-09	0	2.278462e-19	-3.3278825e-21	0	0.97	32
0	0.7069905	0.7069905	0	2.273569e-19	-3.3274526e-21	0.7853982	0.97	32
0	0.99996465	-9.922167e-09	0	2.278462e-19	-3.3278825e-21	0	0.96	32
0	0.7069905	0.7069905	0	2.273569e-19	-3.3274526e-21	0.7853982	0.96	32
0	0.99996465	-9.922167e-09	0	2.278462e-19	-3.3278825e-21	0	0.95	32
0	0.7069905	0.7069905	0	2.273569e-19	-3.3274526e-21	0.7853982	0.95	32
0	0.99996465	-9.922167e-09	0	2.278462e-19	-3.3278825e-21	0	0.94	32
0	0.7069905	0.7069905	0	2.273569e-19	-3.3274526e-21	0.7853982	0.94	32
0	0.99996465	-9.922167e-09	0	2.278462e-19	-3.3278825e-21	0	0.93	32
0	0.7069905	0.7069905	0	2.273569e-19	-3.3274526e-21	0.7853982	0.93	32
0	0.99996465	-9.922167e-09	0	2.278462e-19	-3.3278825e-21	0	0.92	32
0	0.7069905	0.7069905	0	2.273569e-19	-3.3274526e-21	0.7853982	0.92	32
0	0.99996465	-9.922167e-09	0	2.278462e-19	-3.3278825e-21	0	0.91	32
0	0.7069905	0.7069905	0	2.273569e-19	-3.3274526e-21	0.7853982	0.91	32
0	0.99996465	-9.922167e-09	0	2.278462e-19	-3.3278825e-21	0	0.9	32
0	0.7069905	0.7069905	0	2.273569e-19	-3.3274526e-21	0.7853982	0.9	32
0	0.99996465	-9.922167e-09	0	2.278462e-19	-3.3278825e-21	0	0.89	32
0	0.7069905	0.7069905	0	2.273569e-19	-3.3274526e-21	0.7853982	0.89	32
0	0.99996465	-9.922167e-09	0	2.278462e-19	-3.3278825e-21	0	0.88	32
0	0.7069905	0.7069905	0	2.273569e-19	-3.3274526e-21	0.7853982	0.88	32
0	0.99996465	-9.922167e-09	0	2.278462e-19	-3.3278825e-21	0	0.87	32
0	0.7069905	0.7069905	0	2.273569e-19	-3.3274526e-21	0.7853982	0.87	32
0	0.99996465	-9.922167e-09	0	2.278462e-19	-3.3278825e-21	0	0.86	32
0	0.7069905	0.7069905	0	2.273569e-19	-3.3274526e-21	0.7853982	0.86	32
0	0.99996465	-9.922167e-09	0	2.278462e-19	-3.3278825e-21	0	0.85	32
0	0.7069905	0.7069905	0	2.273569e-19	-3.3274526e-21	0.7853982	0.85	32
0	0.99996465	-9.922167e-09	0	2.278462e-19	-3.3278825e-21	0	0.84	32
0	0.7069905	0.7069905	0	2.273569e-19	-3.3274526e-21	0.7853982	0.84	32
0	0.99996465	-9.922167e-09	0	2.278462e-19	-3.3278825e-21	0	0.83	32
0	0.7069905	0.7069905	0	2.273569e-19	-3.3274526e-21	0.7853982	0.83	32
0	0.99996465	-9.922167e-09	0	2.278462e-19	-3.3278825e-21	0	0.82	32
0	0.7069905	0.7069905	0	2.273569e-19	-3.3274526e-21	0.7853982	0.82	32
0	0.99996465	-9.922167e-09	0	2.278462e-19	-3.3278825e-21	0	0.81	32
0	0.7069905	0.7069905	0	2.273569e-19	-3.3274526e-21	0.7853982	0.81	32
0	0.9999561	-1.0089328e-08	0	2.2272792e-19	-3.071865e-21	0	0.8	32
0	0.7070286	0.7070289	0	2.2232503e-19	-3.0716613e-21	0.7853982	0.8	32
0	0.9999561	-1.2223609e-08	0	2.2272792e-19	-3.071865e-21	0	0.79	32
0	0.7070286	0.7070289	0	2.2232503e-19	-3.0716613e-21	0.7853982	0.79	32
0	0.9999561	-1.2223609e-08	0	2.2272792e-19	-3.071865e-21	0	0.78	32
0	0.7070286	0.7070289	0	2.2232503e-19	-3.0716613e-21	0.7853982	0.78	32
0	0.9998841	-6.845221e-09	0	1.954507e-19	-2.5597033e-21	0	0.77	32
0	0.7067544	0.7067547	0	1.9492466e-19	-2.5587247e-21	0.7853982	0.77	32
0	0.99988425	-4.93601e-09	0	1.954507e-19	-2.5597033e-21	0	0.76	32
0	0.7067544	0.7067547	0	1.9492466e-19	-2.5587247e-21	0.7853982	0.76	32
0	0.9998841	-6.845221e-09	0	1.954507e-19	-2.5597033e-21	0	0.75	32
0	0.7067544	0.7067546	0	1.9492466e-19	-2.5587247e-21	0.7853982	0.75	32
0	0.9998841	-6.845221e-09	0	1.954507e-19	-2.5597033e-21	0	0.74	32
0	0.7067544	0.7067547	0	1.9492466e-19	-2.5587247e-21	0.7853982	0.74	32
0	0.99988425	-4.93601e-09	0	1.954507e-19	-2.5597033e-21	0	0.73	32
0	0.7067544	0.7067547	0	1.9492466e-19	-2.5587247e-21	0.7853982	0.73	32
0	0.9998841	-6.845221e-09	0	1.954507e-19	-2.5597033e-21	0	0.72	32
0	0.7067544	0.7067547	0	1.9492466e-19	-2.5587247e-21	0.7853982	0.72	32
0	0.99988425	-4.93601e-09	0	1.954507e-19	-2.5597033e-21	0	0.71	32
0	0.7067544	0.7067547	0	1.9492466e-19	-2.5587247e-21	0.7853982	0.71	32
0	0.9998841	-6.845221e-09	0	1.954507e-19	-2.5597033e-21	0	0.7	32
0	0.7067544	0.7067547	0	1.9492466e-19	-2.5587247e-21	0.7853982	0.7	32
0	0.99988425	-4.93601e-09	0	1.954507e-19	-2.5597033e-21	0	0.69	32
0	0.7067544	0.7067547	0	1.9492466e-19	-2.5587247e-21	0.7853982	0.69	32
0	0.9998841	-6.845221e-09	0	1.954507e-19	-2.5597033e-21	0	0.68	32
0	0.7067544	0.7067547	0	1.9492466e-19	-2.5587247e-21	0.7853982	0.68	32
0	0.99988425	-4.93601e-09	0	1.954507e-19	-2.5597033e-21	0	0.67	32
0	0.7067544	0.7067547	0	1.9492466e-19	-2.5587247e-21	0.7853982	0.67	32
0	0.9998841	-6.845221e-09	0	1.954507e-19	-2.5597033e-21	0	0.66	32
0	0.7067544	0.7067547	0	1.9492466e-19	-2.5587247e-21	0.7853982	0.66	32
0	0.99988425	-4.93601e-09	0	1.954507e-19	-2.5597033e-21	0	0.65	32