# t (s)	mx ()	my ()	mz ()	E_total (J)	E_Zeeman (J)	Angle (rad)	Roundness ()	Size (nm)
0	0.9939718	-2.4225699e-08	0	9.161811e-19	-3.1425415e-20	0	1	100
0	0.7013767	0.7013633	0	9.007311e-19	-3.1359496e-20	0.7853982	1	100
0	0.9940066	-2.1074499e-08	0	9.122863e-19	-3.1172053e-20	0	0.99	100
0	0.70157987	0.70156753	0	8.99182e-19	-3.1114612e-20	0.7853982	0.99	100
0	0.9935949	-1.9923036e-08	0	9.046964e-19	-3.0968366e-20	0	0.98	100
0	0.70191336	0.7018984	0	8.986326e-19	-3.093875e-20	0.7853982	0.98	100
0	0.99352056	-2.675104e-08	0	9.018676e-19	-3.0838886e-20	0	0.97	100
0	0.702024	0.7020096	0	8.978884e-19	-3.0816565e-20	0.7853982	0.97	100
0	0.99342316	-1.748881e-08	0	8.986551e-19	-3.0708702e-20	0	0.96	100
0	0.7020352	0.7020244	0	8.957258e-19	-3.069005e-20	0.7853982	0.96	100
0	0.9934235	-2.9227717e-08	0	8.986548e-19	-3.0708712e-20	0	0.95	100
0	0.70203817	0.70202136	0	8.957259e-19	-3.0690055e-20	0.7853982	0.95	100
0	0.99337083	-2.0506523e-08	0	8.960312e-19	-3.057993e-20	0	0.94	100
0	0.7021921	0.7021815	0	8.954687e-19	-3.0569813e-20	0.7853982	0.94	100
0	0.99337083	-2.7250382e-08	0	8.960312e-19	-3.057993e-20	0	0.93	100
0	0.70219547	0.7021783	0	8.954689e-19	-3.0569813e-20	0.7853982	0.93	100
0	0.9929598	-2.1651779e-08	0	8.853641e-19	-3.018598e-20	0	0.92	100
0	0.70284027	0.7028261	0	8.951275e-19	-3.0216268e-20	0.7853982	0.92	100
0	0.9929597	-1.7461808e-08	0	8.853642e-19	-3.0185976e-20	0	0.91	100
0	0.7028411	0.7028249	0	8.951277e-19	-3.0216265e-20	0.7853982	0.91	100
0	0.9930912	-2.0870722e-08	0	8.822768e-19	-2.9935744e-20	0	0.9	100
0	0.7029194	0.70290273	0	8.918345e-19	-2.9965138e-20	0.7853982	0.9	100
0	0.9930912	-2.0759991e-08	0	8.822766e-19	-2.9935744e-20	0	0.89	100
0	0.7029182	0.7029039	0	8.918346e-19	-2.9965138e-20	0.7853982	0.89	100
0	0.9930912	-2.2048221e-08	0	8.822767e-19	-2.9935744e-20	0	0.88	100
0	0.7029166	0.7029052	0	8.918344e-19	-2.996513e-20	0.7853982	0.88	100
0	0.9933516	-2.8857952e-08	0	8.774812e-19	-2.949857e-20	0	0.87	100
0	0.70316786	0.7031499	0	8.880041e-19	-2.953021e-20	0.7853982	0.87	100
0	0.99264294	-2.5881821e-08	0	8.6364547e-19	-2.9096356e-20	0	0.86	100
0	0.7037859	0.7037721	0	8.858898e-19	-2.9174056e-20	0.7853982	0.86	100
0	0.9926428	-2.4905761e-08	0	8.636454e-19	-2.909635e-20	0	0.85	100
0	0.703787	0.70377094	0	8.858895e-19	-2.9174056e-20	0.7853982	0.85	100
0	0.99264294	-2.422252e-08	0	8.636456e-19	-2.909635e-20	0	0.84	100
0	0.7037864	0.70377165	0	8.858898e-19	-2.917406e-20	0.7853982	0.84	100
0	0.99264294	-2.7389628e-08	0	8.6364563e-19	-2.9096356e-20	0	0.83	100
0	0.7037854	0.7037724	0	8.858897e-19	-2.917405e-20	0.7853982	0.83	100
0	0.99299616	-2.3057414e-08	0	8.6397593e-19	-2.8852496e-20	0	0.82	100
0	0.7041308	0.7041186	0	8.864905e-19	-2.8933456e-20	0.7853982	0.82	100
0	0.99301594	-2.5541315e-08	0	8.624389e-19	-2.8725963e-20	0	0.81	100
0	0.70435673	0.7043456	0	8.866181e-19	-2.8815266e-20	0.7853982	0.81	100
0	0.99287117	-2.2582494e-08	0	8.5668154e-19	-2.8467605e-20	0	0.8	100
0	0.7046908	0.70468456	0	8.854113e-19	-2.857391e-20	0.7853982	0.8	100
0	0.99259484	-2.2636371e-08	0	8.5093755e-19	-2.82691e-20	0	0.79	100
0	0.7049706	0.7049584	0	8.839198e-19	-2.839372e-20	0.7853982	0.79	100
0	0.99258476	-2.029148e-08	0	8.485145e-19	-2.8141764e-20	0	0.78	100
0	0.70501316	0.7050004	0	8.823413e-19	-2.82678e-20	0.7853982	0.78	100
0	0.9926692	-2.0440524e-08	0	8.480196e-19	-2.80171e-20	0	0.77	100
0	0.70523083	0.70522	0	8.824548e-19	-2.8148908e-20	0.7853982	0.77	100
0	0.9926866	-1.8166094e-08	0	8.453775e-19	-2.7890524e-20	0	0.76	100
0	0.7051771	0.7051635	0	8.794776e-19	-2.8019053e-20	0.7853982	0.76	100
0	0.9926954	-2.1467304e-08	0	8.437884e-19	-2.7763707e-20	0	0.75	100
0	0.70537436	0.7053639	0	8.792141e-19	-2.7899267e-20	0.7853982	0.75	100
0	0.99263835	-1.8693129e-08	0	8.389578e-19	-2.7507998e-20	0	0.74	100
0	0.705627	0.7056198	0	8.774587e-19	-2.7653863e-20	0.7853982	0.74	100
0	0.99236065	-2.1304821e-08	0	8.301402e-19	-2.7119236e-20	0	0.73	100
0	0.7060612	0.7060549	0	8.741171e-19	-2.728747e-20	0.7853982	0.73	100
0	0.99236065	-2.0890417e-08	0	8.3014026e-19	-2.7119236e-20	0	0.72	100
0	0.7060612	0.7060549	0	8.74117e-19	-2.728747e-20	0.7853982	0.72	100
0	0.99274266	-1.6487045e-08	0	8.328642e-19	-2.6939066e-20	0	0.71	100
0	0.7063096	0.7063053	0	8.743909e-19	-2.7105326e-20	0.7853982	0.71	100
0	0.9928672	-2.1085587e-08	0	8.294275e-19	-2.668827e-20	0	0.7	100
0	0.7063757	0.7063722	0	8.701764e-19	-2.685214e-20	0.7853982	0.7	100
0	0.9928672	-2.115211e-08	0	8.2942744e-19	-2.668827e-20	0	0.69	100
0	0.70637685	0.7063712	0	8.701763e-19	-2.6852145e-20	0.7853982	0.69	100
0	0.99295676	-1.2743822e-08	0	8.248493e-19	-2.6309382e-20	0	0.68	100
0	0.7066427	0.70663863	0	8.668279e-19	-2.6478533e-20	0.7853982	0.68	100
0	0.99289894	-1.6026886e-08	0	8.2212726e-19	-2.6180762e-20	0	0.67	100
0	0.706728	0.70672494	0	8.6566343e-19	-2.6353818e-20	0.7853982	0.67	100
0	0.99280274	-1.36321185e-08	0	8.136551e-19	-2.566991e-20	0	0.66	100
0	0.7069471	0.706945	0	8.59379e-19	-2.5850123e-20	0.7853982	0.66	100
0	0.99280274	-9.657861e-09	0	8.136553e-19	-2.566991e-20	0	0.65	100
0	0.7069471	0.7069451	0	8.593791e-19	-2.5850123e-20	0.7853982	0.65	100
0	0.993227	-1.6175603e-08	0	8.1360043e-19	-2.5363047e-20	0	0.64	100
0	0.7069658	0.70696455	0	8.557243e-19	-2.5530888e-20	0.7853982	0.64	100
0	0.99320126	-2.0995811e-08	0	8.1193097e-19	-2.5235258e-20	0	0.63	100
0	0.7069394	0.70693624	0	8.5370643e-19	-2.5401935e-20	0.7853982	0.63	100
0	0.99314106	-2.0333482e-08	0	8.0922593e-19	-2.5106607e-20	0	0.62	100
0	0.7069283	0.70692474	0	8.519778e-19	-2.5273557e-20	0.7853982	0.62	100
0	0.99331737	-1.9545865e-08	0	8.0904426e-19	-2.4856777e-20	0	0.61	100
0	0.7067294	0.70672435	0	8.486682e-19	-2.5010557e-20	0.7853982	0.61	100
0	0.9932464	-1.7636472e-08	0	8.059934e-19	-2.4727865e-20	0	0.6	100
0	0.70667666	0.70667076	0	8.467538e-19	-2.4880753e-20	0.7853982	0.6	100
0	0.99374247	-1.6825814e-08	0	8.064308e-19	-2.4358614e-20	0	0.59	100
0	0.7063605	0.70635426	0	8.4227614e-19	-2.4486024e-20	0.7853982	0.59	100
0	0.99325764	-2.3053321e-08	0	7.9382006e-19	-2.3965322e-20	0	0.58	100
0	0.70582753	0.70582134	0	8.326346e-19	-2.4084246e-20	0.7853982	0.58	100
0	0.9937011	-1.8741629e-08	0	7.9958923e-19	-2.3912423e-20	0	0.57	100
0	0.70552975	0.70552486	0	8.3271445e-19	-2.401025e-20	0.7853982	0.57	100
0	0.99376094	-1.6727505e-08	0	7.9711797e-19	-2.3659463e-20	0	0.56	100
0	0.7049028	0.70488864	0	8.277506e-19	-2.3733558e-20	0.7853982	0.56	100
0	0.9936491	-1.6675708e-08	0	7.939472e-19	-2.3529615e-20	0	0.55	100
0	0.7045114	0.70449245	0	8.240775e-19	-2.3592768e-20	0.7853982	0.55	100
0	0.9938814	-1.1777668e-08	0	7.940971e-19	-2.3280677e-20	0	0.54	100
0	0.7036085	0.7035853	0	8.1919853e-19	-2.3307733e-20	0.7853982	0.54	100
0	0.9943386	-2.0727102e-08	0	7.9648994e-19	-2.2909565e-20	0	0.53	100
0	0.7016089	0.7015784	0	8.0991715e-19	-2.2860366e-20	0.7853982	0.53	100
0	0.9943349	-1.9417815e-08	0	7.9029684e-19	-2.2654928e-20	0	0.52	100
0	0.70149255	0.70146453	0	8.049545e-19	-2.260265e-20	0.7853982	0.52	100
0	0.9948275	-2.6902823e-08	0	7.956516e-19	-2.2475145e-20	0	0.51	100
0	0.7000512	0.7000212	0	8.0061896e-19	-2.23661e-20	0.7853982	0.51	100
0	0.9944664	-1.8304696e-08	0	7.748123e-19	-2.183053e-20	0	0.5	100
0	0.6994422	0.6994135	0	7.831481e-19	-2.1713606e-20	0.7853982	0.5	100
0	0.9946009	-1.3681702e-08	0	7.7541167e-19	-2.1706168e-20	0	0.49	100
0	0.6985301	0.6984972	0	7.795183e-19	-2.1558782e-20	0.7853982	0.49	100
0	0.99491733	-2.0206521e-08	0	7.772993e-19	-2.145838e-20	0	0.48	100
0	0.69659597	0.6965712	0	7.724327e-19	-2.1247024e-20	0.7853982	0.48	100
0	0.995299	-1.7235799e-08	0	7.7789176e-19	-2.1084417e-20	0	0.47	100
0	0.69348603	0.6934519	0	7.598955e-19	-2.0775425e-20	0.7853982	0.47	100
0	0.9957272	-2.330933e-08	0	7.8245656e-19	-2.0902303e-20	0	0.46	100
0	0.69125754	0.69122714	0	7.5352204e-19	-2.052103e-20	0.7853982	0.46	100
0	0.9957351	-1.6791283e-08	0	7.76369e-19	-2.0520109e-20	0	0.45	100
0	0.6891182	0.6890868	0	7.414384e-19	-2.0083283e-20	0.7853982	0.45	100
0	0.9956233	-1.682929e-08	0	7.7247006e-19	-2.0390366e-20	0	0.44	100
0	0.6883575	0.68833363	0	7.3590976e-19	-1.9936617e-20	0.7853982	0.44	100
0	0.9957332	-2.2164143e-08	0	7.679229e-19	-2.0010257e-20	0	0.43	100
0	0.6859595	0.68592733	0	7.234636e-19	-1.9494535e-20	0.7853982	0.43	100
0	0.9960043	-1.6330441e-08	0	7.690886e-19	-1.9760724e-20	0	0.42	100
0	0.68344986	0.68342155	0	7.1459854e-19	-1.917584e-20	0.7853982	0.42	100
0	0.996671	-2.3720693e-08	0	7.6514475e-19	-1.9072299e-20	0	0.41	100
0	0.67790705	0.67788607	0	6.875221e-19	-1.8345501e-20	0.7853982	0.41	100
0	0.9967234	-1.8546489e-08	0	7.6415963e-19	-1.894572e-20	0	0.4	100
0	0.6768547	0.6768332	0	6.830279e-19	-1.8194497e-20	0.7853982	0.4	100
0	0.99678254	-2.3319618e-08	0	7.6140817e-19	-1.8691665e-20	0	0.39	100
0	0.6748564	0.6748371	0	6.734278e-19	-1.7896489e-20	0.7853982	0.39	100
0	0.99678624	-2.1786413e-08	0	7.5277825e-19	-1.8181381e-20	0	0.38	100
0	0.67167914	0.67165786	0	6.5269384e-19	-1.7325862e-20	0.7853982	0.38	100
0	0.9970699	-3.0253176e-08	0	7.564637e-19	-1.8058931e-20	0	0.37	100
0	0.66921955	0.6692015	0	6.4701695e-19	-1.7141315e-20	0.7853982	0.37	100
0	0.99778825	-1.5480706e-08	0	7.642034e-19	-1.7624933e-20	0	0.36	100
0	0.6623341	0.66232216	0	6.2649197e-19	-1.6545399e-20	0.7853982	0.36	100
0	0.9977087	-2.4089347e-08	0	7.5465414e-19	-1.7240407e-20	0	0.35	100
0	0.6615298	0.6615169	0	6.1172545e-19	-1.616605e-20	0.7853982	0.35	100
0	0.99771786	-3.2982737e-08	0	7.508942e-19	-1.6985152e-20	0	0.34	100
0	0.6599078	0.65989494	0	6.016794e-19	-1.5887501e-20	0.7853982	0.34	100
0	0.9979293	-3.0586335e-08	0	7.4976013e-19	-1.6605546e-20	0	0.33	100
0	0.6558288	0.6558178	0	5.8694555e-19	-1.543317e-20	0.7853982	0.33	100
0	0.99809575	-2.1654166e-08	0	7.4527634e-19	-1.6225044e-20	0	0.32	100
0	0.65371865	0.65370923	0	5.7245536e-19	-1.5028528e-20	0.7853982	0.32	100
0	0.99864006	-2.2051276e-08	0	7.5010377e-19	-1.5786503e-20	0	0.31	100
0	0.64694554	0.64693993	0	5.4931364e-19	-1.4462978e-20	0.7853982	0.31	100
0	0.998641	-2.188669e-08	0	7.366794e-19	-1.5275213e-20	0	0.3	100
0	0.6470026	0.6469959	0	5.37088e-19	-1.3995765e-20	0.7853982	0.3	100
0	0.99862486	-2.439613e-08	0	7.2529735e-19	-1.4891495e-20	0	0.29	100
0	0.6468835	0.64687645	0	5.247514e-19	-1.3641892e-20	0.7853982	0.29	100
0	0.9987281	-2.146996e-08	0	7.1933234e-19	-1.4381687e-20	0	0.28	100
0	0.6431352	0.6431292	0	5.046383e-19	-1.3097177e-20	0.7853982	0.28	100
0	0.9991286	-1.9554287e-08	0	7.201617e-19	-1.3875898e-20	0	0.27	100
0	0.6360931	0.6360895	0	4.793121e-19	-1.24932125e-20	0.7853982	0.27	100
0	0.9992613	-1.3227794e-08	0	7.185548e-19	-1.3557978e-20	0	0.26	100
0	0.6332587	0.6332557	0	4.6482e-19	-1.2150972e-20	0.7853982	0.26	100
0	0.99923253	-1.0636838e-08	0	7.1329433e-19	-1.3301784e-20	0	0.25	100
0	0.63309515	0.6330915	0	4.566454e-19	-1.1918621e-20	0.7853982	0.25	100
0	0.999233	-1.9819357e-08	0	7.0590425e-19	-1.2918083e-20	0	0.24	100
0	0.6315675	0.63156366	0	4.433375e-19	-1.1546882e-20	0.7853982	0.24	100
0	0.99942285	-2.232922e-08	0	7.049627e-19	-1.2408836e-20	0	0.23	100
0	0.6238767	0.62387437	0	4.2092502e-19	-1.0954552e-20	0.7853982	0.23	100
0	0.9996654	-1.7641533e-08	0	6.9688984e-19	-1.1708082e-20	0	0.22	100
0	0.6185545	0.6185535	0	3.8957568e-19	-1.02452765e-20	0.7853982	0.22	100
0	0.99965376	-1.3340167e-08	0	6.942527e-19	-1.1579991e-20	0	0.21	100
0	0.6185573	0.61855614	0	3.8603503e-19	-1.013335e-20	0.7853982	0.21	100
0	0.9996232	-1.0286624e-08	0	6.85504e-19	-1.119578e-20	0	0.2	100
0	0.618624	0.6186219	0	3.749774e-19	-9.7984875e-21	0.7853982	0.2	100
0	0.99961287	-1.1780172e-08	0	6.712391e-19	-1.0555913e-20	0	0.19	100
0	0.6160721	0.61606944	0	3.53678e-19	-9.20046e-21	0.7853982	0.19	100
0	0.9998784	-1.0527378e-08	0	6.759363e-19	-9.9827864e-21	0	0.18	100
0	0.60122824	0.6012279	0	3.2136099e-19	-8.489043e-21	0.7853982	0.18	100
0	0.9998663	-1.4906668e-08	0	6.5419786e-19	-9.4707325e-21	0	0.17	100
0	0.60546386	0.6054635	0	3.0860173e-19	-8.110445e-21	0.7853982	0.17	100
0	0.99985343	-1.2332344e-08	0	6.477005e-19	-9.214649e-21	0	0.16	100
0	0.60622483	0.6062241	0	3.0299453e-19	-7.901161e-21	0.7853982	0.16	100
0	0.99982834	-6.9977593e-09	0	6.33875e-19	-8.702506e-21	0	0.15	100
0	0.60581714	0.6058154	0	2.8892434e-19	-7.4571835e-21	0.7853982	0.15	100
0	0.9999597	-4.0663584e-09	0	6.2393086e-19	-7.7436885e-21	0	0.14	100
0	0.5862841	0.58628386	0	2.4297515e-19	-6.4207888e-21	0.7853982	0.14	100
0	0.99995846	-2.8238178e-09	0	6.102903e-19	-7.487689e-21	0	0.13	100
0	0.5890993	0.58909893	0	2.376781e-19	-6.2383425e-21	0.7853982	0.13	100
0	0.99995637	-2.2788558e-09	0	6.0069215e-19	-7.2316855e-21	0	0.12	100
0	0.59166926	0.5916691	0	2.3430382e-19	-6.05135e-21	0.7853982	0.12	100
0	0.99994946	-1.4501054e-09	0	5.7469055e-19	-6.5916674e-21	0	0.11	100
0	0.5962791	0.59627867	0	2.2345822e-19	-5.5588068e-21	0.7853982	0.11	100
