# t (s)	mx ()	my ()	mz ()	E_total (J)	E_Zeeman (J)	Angle (rad)	Roundness ()	Size (nm)	Cell_size (m)	Volume (m^3)
0	0.9998094	-7.838249e-09	0	1.8988372e-19	-3.247381e-20	0	1	32	1e-09	4.06e-24
0	0.9994645	0.026241876	0	1.898826e-19	-3.2473744e-20	0.024543693	1	32	1e-09	4.06e-24
0	0.9983621	0.05375165	0	1.8987923e-19	-3.247341e-20	0.049087387	1	32	1e-09	4.06e-24
0	0.996553	0.080593765	0	1.8987362e-19	-3.247291e-20	0.07363108	1	32	1e-09	4.06e-24
0	0.99394834	0.108054146	0	1.898659e-19	-3.247199e-20	0.09817477	1	32	1e-09	4.06e-24
0	0.9906613	0.13488504	0	1.8985614e-19	-3.2470985e-20	0.12271846	1	32	1e-09	4.06e-24
0	0.9866832	0.16141137	0	1.8984452e-19	-3.246986e-20	0.14726216	1	32	1e-09	4.06e-24
0	0.9821352	0.18708564	0	1.8983111e-19	-3.2468962e-20	0.17180584	1	32	1e-09	4.06e-24
0	0.97674096	0.21344687	0	1.8981613e-19	-3.246748e-20	0.19634955	1	32	1e-09	4.06e-24
0	0.97086746	0.23872592	0	1.8979975e-19	-3.2466445e-20	0.22089323	1	32	1e-09	4.06e-24
0	0.964528	0.26315492	0	1.897822e-19	-3.246583e-20	0.24543692	1	32	1e-09	4.06e-24
0	0.95755917	0.28746462	0	1.8976362e-19	-3.246516e-20	0.2699806	1	32	1e-09	4.06e-24
0	0.94992787	0.31174108	0	1.8974421e-19	-3.2464345e-20	0.2945243	1	32	1e-09	4.06e-24
0	0.941773	0.3355579	0	1.8972421e-19	-3.246371e-20	0.319068	1	32	1e-09	4.06e-24
0	0.933109	0.35893306	0	1.8970382e-19	-3.2463243e-20	0.3436117	1	32	1e-09	4.06e-24
0	0.92393976	0.38190374	0	1.896833e-19	-3.2462926e-20	0.3681554	1	32	1e-09	4.06e-24
0	0.9142641	0.40450728	0	1.8966272e-19	-3.2462726e-20	0.3926991	1	32	1e-09	4.06e-24
0	0.90417403	0.42657274	0	1.896424e-19	-3.2462774e-20	0.41724277	1	32	1e-09	4.06e-24
0	0.893755	0.44798166	0	1.8962248e-19	-3.2463175e-20	0.44178647	1	32	1e-09	4.06e-24
0	0.8829571	0.46889582	0	1.8960315e-19	-3.2463744e-20	0.46633017	1	32	1e-09	4.06e-24
0	0.8718163	0.4892896	0	1.8958457e-19	-3.24645e-20	0.49087384	1	32	1e-09	4.06e-24
0	0.860229	0.5093776	0	1.8956691e-19	-3.2465236e-20	0.5154175	1	32	1e-09	4.06e-24
0	0.84844154	0.5287712	0	1.8955029e-19	-3.2466206e-20	0.5399612	1	32	1e-09	4.06e-24
0	0.83589673	0.54838085	0	1.8953484e-19	-3.246677e-20	0.5645049	1	32	1e-09	4.06e-24
0	0.82319987	0.56725687	0	1.8952064e-19	-3.246755e-20	0.5890486	1	32	1e-09	4.06e-24
0	0.8100869	0.5858257	0	1.8950789e-19	-3.2468245e-20	0.6135923	1	32	1e-09	4.06e-24
0	0.7966614	0.60395205	0	1.8949667e-19	-3.24689e-20	0.638136	1	32	1e-09	4.06e-24
0	0.78282386	0.6217795	0	1.8948698e-19	-3.246944e-20	0.6626797	1	32	1e-09	4.06e-24
0	0.7684112	0.6395026	0	1.8947898e-19	-3.2469802e-20	0.6872234	1	32	1e-09	4.06e-24
0	0.7542546	0.6561377	0	1.8947271e-19	-3.2470238e-20	0.7117671	1	32	1e-09	4.06e-24
0	0.73909014	0.6731717	0	1.8946815e-19	-3.247039e-20	0.7363108	1	32	1e-09	4.06e-24
0	0.7239679	0.6894083	0	1.8946546e-19	-3.2470474e-20	0.7608545	1	32	1e-09	4.06e-24
0	0.7068993	0.7068993	0	1.8946447e-19	-3.2470468e-20	0.7853982	1	32	1e-09	4.06e-24
0	0.9998094	-7.838249e-09	0	1.8988372e-19	-3.247381e-20	0	0.99	32	1e-09	4.06e-24
0	0.9994645	0.026241876	0	1.898826e-19	-3.2473744e-20	0.024543693	0.99	32	1e-09	4.06e-24
0	0.9983621	0.05375165	0	1.8987923e-19	-3.247341e-20	0.049087387	0.99	32	1e-09	4.06e-24
0	0.9966183	0.079783134	0	1.8987369e-19	-3.2473085e-20	0.07363108	0.99	32	1e-09	4.06e-24
0	0.99405056	0.1071099	0	1.8986596e-19	-3.247229e-20	0.09817477	0.99	32	1e-09	4.06e-24
0	0.9906613	0.13488504	0	1.8985614e-19	-3.2470985e-20	0.12271846	0.99	32	1e-09	4.06e-24
0	0.9868187	0.16058199	0	1.8984454e-19	-3.2470264e-20	0.14726216	0.99	32	1e-09	4.06e-24
0	0.98219335	0.18677981	0	1.8983114e-19	-3.2469133e-20	0.17180584	0.99	32	1e-09	4.06e-24
0	0.97672653	0.21351236	0	1.8981613e-19	-3.246744e-20	0.19634955	0.99	32	1e-09	4.06e-24
0	0.97091174	0.23854613	0	1.8979976e-19	-3.2466564e-20	0.22089323	0.99	32	1e-09	4.06e-24
0	0.96462744	0.26279086	0	1.8978222e-19	-3.2466086e-20	0.24543692	0.99	32	1e-09	4.06e-24
0	0.9575458	0.28750914	0	1.8976358e-19	-3.246513e-20	0.2699806	0.99	32	1e-09	4.06e-24
0	0.94992894	0.311738	0	1.8974421e-19	-3.246435e-20	0.2945243	0.99	32	1e-09	4.06e-24
0	0.9417833	0.3355291	0	1.8972421e-19	-3.246373e-20	0.319068	0.99	32	1e-09	4.06e-24
0	0.9331031	0.35894844	0	1.897038e-19	-3.246323e-20	0.3436117	0.99	32	1e-09	4.06e-24
0	0.9239594	0.38185632	0	1.8968328e-19	-3.246297e-20	0.3681554	0.99	32	1e-09	4.06e-24
0	0.914415	0.40416604	0	1.8966274e-19	-3.2463017e-20	0.3926991	0.99	32	1e-09	4.06e-24
0	0.9042749	0.42635918	0	1.896424e-19	-3.246296e-20	0.41724277	0.99	32	1e-09	4.06e-24
0	0.89403194	0.44742912	0	1.8962253e-19	-3.2463624e-20	0.44178647	0.99	32	1e-09	4.06e-24
0	0.8831509	0.46853095	0	1.8960319e-19	-3.246404e-20	0.46633017	0.99	32	1e-09	4.06e-24
0	0.8719281	0.48909026	0	1.8958459e-19	-3.246465e-20	0.49087384	0.99	32	1e-09	4.06e-24
0	0.8601795	0.50946134	0	1.895669e-19	-3.2465175e-20	0.5154175	0.99	32	1e-09	4.06e-24
0	0.84844154	0.5287712	0	1.8955029e-19	-3.2466206e-20	0.5399612	0.99	32	1e-09	4.06e-24
0	0.83599716	0.54822767	0	1.8953481e-19	-3.246687e-20	0.5645049	0.99	32	1e-09	4.06e-24
0	0.823135	0.5673509	0	1.8952064e-19	-3.2467495e-20	0.5890486	0.99	32	1e-09	4.06e-24
0	0.81017137	0.585709	0	1.8950789e-19	-3.24683e-20	0.6135923	0.99	32	1e-09	4.06e-24
0	0.7966271	0.60399723	0	1.8949664e-19	-3.246888e-20	0.638136	0.99	32	1e-09	4.06e-24
0	0.78271854	0.6219122	0	1.8948698e-19	-3.246939e-20	0.6626797	0.99	32	1e-09	4.06e-24
0	0.76865363	0.6392113	0	1.8947899e-19	-3.2469886e-20	0.6872234	0.99	32	1e-09	4.06e-24
0	0.75393593	0.6565036	0	1.894727e-19	-3.247017e-20	0.7117671	0.99	32	1e-09	4.06e-24
0	0.73914975	0.6731064	0	1.8946817e-19	-3.2470397e-20	0.7363108	0.99	32	1e-09	4.06e-24
0	0.7239299	0.6894481	0	1.8946545e-19	-3.2470468e-20	0.7608545	0.99	32	1e-09	4.06e-24
0	0.7068993	0.7068993	0	1.8946444e-19	-3.2470468e-20	0.7853982	0.99	32	1e-09	4.06e-24
0	0.9998002	-7.96721e-09	0	1.8876945e-19	-3.2153573e-20	0	0.98	32	1e-09	4.02e-24
0	0.9994912	0.024850205	0	1.8876892e-19	-3.215357e-20	0.024543693	0.98	32	1e-09	4.02e-24
0	0.9985302	0.050366815	0	1.8876733e-19	-3.215353e-20	0.049087387	0.98	32	1e-09	4.02e-24
0	0.9968623	0.07657267	0	1.8876468e-19	-3.2153386e-20	0.07363108	0.98	32	1e-09	4.02e-24
0	0.9945846	0.101965755	0	1.8876101e-19	-3.2153244e-20	0.09817477	0.98	32	1e-09	4.02e-24
0	0.9915624	0.12805083	0	1.8875639e-19	-3.2152927e-20	0.12271846	0.98	32	1e-09	4.02e-24
0	0.98795766	0.15339279	0	1.8875084e-19	-3.2152666e-20	0.14726216	0.98	32	1e-09	4.02e-24
0	0.9837152	0.17857873	0	1.8874446e-19	-3.215237e-20	0.17180584	0.98	32	1e-09	4.02e-24
0	0.9790099	0.20278433	0	1.8873731e-19	-3.2152275e-20	0.19634955	0.98	32	1e-09	4.02e-24
0	0.9733909	0.22822666	0	1.8872939e-19	-3.2151774e-20	0.22089323	0.98	32	1e-09	4.02e-24
0	0.9676207	0.2515605	0	1.8872092e-19	-3.2151848e-20	0.24543692	0.98	32	1e-09	4.02e-24
0	0.9610324	0.27565202	0	1.8871189e-19	-3.215164e-20	0.2699806	0.98	32	1e-09	4.02e-24
0	0.95375705	0.2998489	0	1.8870236e-19	-3.215132e-20	0.2945243	0.98	32	1e-09	4.02e-24
0	0.9459723	0.3235626	0	1.8869255e-19	-3.215109e-20	0.319068	0.98	32	1e-09	4.02e-24
0	0.93763894	0.34696373	0	1.8868243e-19	-3.2150895e-20	0.3436117	0.98	32	1e-09	4.02e-24
0	0.92878956	0.36999276	0	1.8867222e-19	-3.215076e-20	0.3681554	0.98	32	1e-09	4.02e-24
0	0.91944104	0.39264154	0	1.8866198e-19	-3.215068e-20	0.3926991	0.98	32	1e-09	4.02e-24
0	0.90953416	0.41506752	0	1.8865177e-19	-3.215059e-20	0.41724277	0.98	32	1e-09	4.02e-24
0	0.8991277	0.4371467	0	1.8864169e-19	-3.2150546e-20	0.44178647	0.98	32	1e-09	4.02e-24
0	0.8882748	0.45879224	0	1.8863191e-19	-3.215057e-20	0.46633017	0.98	32	1e-09	4.02e-24
0	0.8769274	0.4801203	0	1.8862243e-19	-3.215061e-20	0.49087384	0.98	32	1e-09	4.02e-24
0	0.86545694	0.50049627	0	1.8861341e-19	-3.2150885e-20	0.5154175	0.98	32	1e-09	4.02e-24
0	0.85344654	0.5207081	0	1.8860488e-19	-3.215109e-20	0.5399612	0.98	32	1e-09	4.02e-24
0	0.84090334	0.54072636	0	1.8859696e-19	-3.2151234e-20	0.5645049	0.98	32	1e-09	4.02e-24
0	0.8278372	0.56052214	0	1.8858963e-19	-3.2151344e-20	0.5890486	0.98	32	1e-09	4.02e-24
0	0.8143142	0.5799899	0	1.88583e-19	-3.215144e-20	0.6135923	0.98	32	1e-09	4.02e-24
0	0.80060476	0.59876937	0	1.8857722e-19	-3.2151586e-20	0.638136	0.98	32	1e-09	4.02e-24
0	0.7857888	0.61808246	0	1.885721e-19	-3.2151564e-20	0.6626797	0.98	32	1e-09	4.02e-24
0	0.77108324	0.63633204	0	1.885679e-19	-3.215164e-20	0.6872234	0.98	32	1e-09	4.02e-24
0	0.7560738	0.65409344	0	1.8856465e-19	-3.21517e-20	0.7117671	0.98	32	1e-09	4.02e-24
0	0.74065906	0.6714974	0	1.8856231e-19	-3.2151716e-20	0.7363108	0.98	32	1e-09	4.02e-24
0	0.72402906	0.68939525	0	1.8856081e-19	-3.2151706e-20	0.7608545	0.98	32	1e-09	4.02e-24
0	0.7069244	0.7069244	0	1.8856033e-19	-3.21517e-20	0.7853982	0.98	32	1e-09	4.02e-24
0	0.9998002	-7.96721e-09	0	1.8876945e-19	-3.2153573e-20	0	0.97	32	1e-09	4.02e-24
0	0.9994882	0.024969472	0	1.8876891e-19	-3.2153564e-20	0.024543693	0.97	32	1e-09	4.02e-24
0	0.9985487	0.049999285	0	1.8876733e-19	-3.2153544e-20	0.049087387	0.97	32	1e-09	4.02e-24
0	0.996956	0.07534303	0	1.8876472e-19	-3.2153486e-20	0.07363108	0.97	32	1e-09	4.02e-24
0	0.99451274	0.10266449	0	1.8876103e-19	-3.215314e-20	0.09817477	0.97	32	1e-09	4.02e-24
0	0.9917164	0.12685272	0	1.8875642e-19	-3.215313e-20	0.12271846	0.97	32	1e-09	4.02e-24
0	0.9879524	0.15342645	0	1.8875084e-19	-3.2152656e-20	0.14726216	0.97	32	1e-09	4.02e-24
0	0.98371863	0.17855965	0	1.8874446e-19	-3.2152375e-20	0.17180584	0.97	32	1e-09	4.02e-24
0	0.97897565	0.20294982	0	1.887373e-19	-3.2152233e-20	0.19634955	0.97	32	1e-09	4.02e-24
0	0.9733867	0.22824445	0	1.8872939e-19	-3.2151774e-20	0.22089323	0.97	32	1e-09	4.02e-24
0	0.9676921	0.251286	0	1.8872095e-19	-3.215193e-20	0.24543692	0.97	32	1e-09	4.02e-24
0	0.96090364	0.2761003	0	1.8871183e-19	-3.215149e-20	0.2699806	0.97	32	1e-09	4.02e-24
0	0.95375705	0.2998489	0	1.8870236e-19	-3.215132e-20	0.2945243	0.97	32	1e-09	4.02e-24
0	0.945957	0.32360712	0	1.8869253e-19	-3.2151076e-20	0.319068	0.97	32	1e-09	4.02e-24
0	0.93772477	0.34673172	0	1.8868248e-19	-3.215098e-20	0.3436117	0.97	32	1e-09	4.02e-24
0	0.9288371	0.36987358	0	1.8867223e-19	-3.21508e-20	0.3681554	0.97	32	1e-09	4.02e-24
0	0.9193856	0.39277112	0	1.8866193e-19	-3.215063e-20	0.3926991	0.97	32	1e-09	4.02e-24
0	0.9092255	0.41574287	0	1.8865168e-19	-3.2150326e-20	0.41724277	0.97	32	1e-09	4.02e-24
0	0.89905953	0.4372868	0	1.8864168e-19	-3.2150494e-20	0.44178647	0.97	32	1e-09	4.02e-24
0	0.8882054	0.45892653	0	1.886319e-19	-3.215052e-20	0.46633017	0.97	32	1e-09	4.02e-24
0	0.8773869	0.47928023	0	1.8862249e-19	-3.2150908e-20	0.49087384	0.97	32	1e-09	4.02e-24
0	0.8655473	0.50034004	0	1.8861343e-19	-3.2150934e-20	0.5154175	0.97	32	1e-09	4.02e-24
0	0.85344654	0.5207081	0	1.8860488e-19	-3.215109e-20	0.5399612	0.97	32	1e-09	4.02e-24
0	0.8409668	0.5406277	0	1.8859696e-19	-3.215126e-20	0.5645049	0.97	32	1e-09	4.02e-24
0	0.8278257	0.560539	0	1.8858962e-19	-3.215134e-20	0.5890486	0.97	32	1e-09	4.02e-24
0	0.81436914	0.57991266	0	1.8858304e-19	-3.215146e-20	0.6135923	0.97	32	1e-09	4.02e-24
0	0.8004712	0.5989479	0	1.885772e-19	-3.2151554e-20	0.638136	0.97	32	1e-09	4.02e-24
0	0.7862536	0.6174911	0	1.8857217e-19	-3.2151644e-20	0.6626797	0.97	32	1e-09	4.02e-24
0	0.77157104	0.63574034	0	1.88568e-19	-3.21517e-20	0.6872234	0.97	32	1e-09	4.02e-24
0	0.7564805	0.6536232	0	1.8856473e-19	-3.2151722e-20	0.7117671	0.97	32	1e-09	4.02e-24
0	0.74065906	0.6714974	0	1.8856231e-19	-3.2151716e-20	0.7363108	0.97	32	1e-09	4.02e-24
0	0.7240344	0.6893898	0	1.8856084e-19	-3.2151706e-20	0.7608545	0.97	32	1e-09	4.02e-24
0	0.7069244	0.7069244	0	1.8856032e-19	-3.21517e-20	0.7853982	0.97	32	1e-09	4.02e-24
0	0.99979943	-6.154217e-09	0	1.8761379e-19	-3.1833616e-20	0	0.96	32	1e-09	3.98e-24
0	0.9994943	0.02469341	0	1.8761343e-19	-3.183361e-20	0.024543693	0.96	32	1e-09	3.98e-24
0	0.9985781	0.049394272	0	1.8761238e-19	-3.18336e-20	0.049087387	0.96	32	1e-09	3.98e-24
0	0.9969653	0.07521461	0	1.8761057e-19	-3.183354e-20	0.07363108	0.96	32	1e-09	3.98e-24
0	0.9947359	0.10047882	0	1.8760813e-19	-3.183346e-20	0.09817477	0.96	32	1e-09	3.98e-24
0	0.99188215	0.12555172	0	1.8760503e-19	-3.1833364e-20	0.12271846	0.96	32	1e-09	3.98e-24
0	0.98833	0.15098004	0	1.8760128e-19	-3.1833193e-20	0.14726216	0.96	32	1e-09	3.98e-24
0	0.984198	0.17590573	0	1.8759695e-19	-3.183304e-20	0.17180584	0.96	32	1e-09	3.98e-24
0	0.97945464	0.20063423	0	1.875921e-19	-3.1832883e-20	0.19634955	0.96	32	1e-09	3.98e-24
0	0.97410744	0.22515944	0	1.8758675e-19	-3.1832724e-20	0.22089323	0.96	32	1e-09	3.98e-24
0	0.9685168	0.24810043	0	1.8758104e-19	-3.1832834e-20	0.24543692	0.96	32	1e-09	3.98e-24
0	0.96186435	0.2727487	0	1.8757481e-19	-3.1832595e-20	0.2699806	0.96	32	1e-09	3.98e-24
0	0.95500046	0.2958802	0	1.875684e-19	-3.183261e-20	0.2945243	0.96	32	1e-09	3.98e-24
0	0.94731116	0.3196379	0	1.8756167e-19	-3.1832463e-20	0.319068	0.96	32	1e-09	3.98e-24
0	0.9390447	0.34315804	0	1.8755474e-19	-3.183231e-20	0.3436117	0.96	32	1e-09	3.98e-24
0	0.93024373	0.36633995	0	1.875477e-19	-3.1832185e-20	0.3681554	0.96	32	1e-09	3.98e-24
0	0.9209731	0.38905326	0	1.8754065e-19	-3.183212e-20	0.3926991	0.96	32	1e-09	3.98e-24
0	0.91136116	0.4110605	0	1.8753359e-19	-3.1832165e-20	0.41724277	0.96	32	1e-09	3.98e-24
0	0.90104645	0.43319845	0	1.8752667e-19	-3.1832123e-20	0.44178647	0.96	32	1e-09	3.98e-24
0	0.88989705	0.45565853	0	1.8751979e-19	-3.183194e-20	0.46633017	0.96	32	1e-09	3.98e-24
0	0.87903786	0.4762668	0	1.8751326e-19	-3.183213e-20	0.49087384	0.96	32	1e-09	3.98e-24
0	0.867118	0.4976345	0	1.8750696e-19	-3.183208e-20	0.5154175	0.96	32	1e-09	3.98e-24
0	0.8551146	0.51798576	0	1.8750105e-19	-3.183217e-20	0.5399612	0.96	32	1e-09	3.98e-24
0	0.8422645	0.53862554	0	1.8749547e-19	-3.183215e-20	0.5645049	0.96	32	1e-09	3.98e-24
0	0.829325	0.5583402	0	1.8749035e-19	-3.1832223e-20	0.5890486	0.96	32	1e-09	3.98e-24
0	0.8156665	0.5781084	0	1.8748572e-19	-3.183223e-20	0.6135923	0.96	32	1e-09	3.98e-24
0	0.8016977	0.59732693	0	1.8748161e-19	-3.183226e-20	0.638136	0.96	32	1e-09	3.98e-24
0	0.7873816	0.6160736	0	1.874781e-19	-3.1832275e-20	0.6626797	0.96	32	1e-09	3.98e-24
0	0.772011	0.6352272	0	1.8747508e-19	-3.1832246e-20	0.6872234	0.96	32	1e-09	3.98e-24
0	0.756728	0.65335757	0	1.8747281e-19	-3.1832246e-20	0.7117671	0.96	32	1e-09	3.98e-24
0	0.7407015	0.6714711	0	1.8747109e-19	-3.1832236e-20	0.7363108	0.96	32	1e-09	3.98e-24
0	0.72405154	0.6893921	0	1.8747006e-19	-3.183223e-20	0.7608545	0.96	32	1e-09	3.98e-24
0	0.70693415	0.70693415	0	1.8746972e-19	-3.1832227e-20	0.7853982	0.96	32	1e-09	3.98e-24
0	0.9997851	-7.2331146e-09	0	1.8647695e-19	-3.151323e-20	0	0.95	32	1e-09	3.94e-24
0	0.9994861	0.024453552	0	1.8647723e-19	-3.1513226e-20	0.024543693	0.95	32	1e-09	3.94e-24
0	0.9985861	0.04895192	0	1.8647803e-19	-3.1513232e-20	0.049087387	0.95	32	1e-09	3.94e-24
0	0.99711305	0.07305039	0	1.8647943e-19	-3.151323e-20	0.07363108	0.95	32	1e-09	3.94e-24
0	0.9951396	0.096272655	0	1.8648129e-19	-3.1513194e-20	0.09817477	0.95	32	1e-09	3.94e-24
0	0.99261415	0.1195356	0	1.8648367e-19	-3.151312e-20	0.12271846	0.95	32	1e-09	3.94e-24
0	0.98943573	0.14348872	0	1.8648659e-19	-3.151309e-20	0.14726216	0.95	32	1e-09	3.94e-24
0	0.985705	0.16720745	0	1.8648987e-19	-3.151304e-20	0.17180584	0.95	32	1e-09	3.94e-24
0	0.9812785	0.19148351	0	1.8649369e-19	-3.151307e-20	0.19634955	0.95	32	1e-09	3.94e-24
0	0.9765346	0.21436976	0	1.8649782e-19	-3.151293e-20	0.22089323	0.95	32	1e-09	3.94e-24
0	0.97102535	0.23808555	0	1.8650237e-19	-3.1512906e-20	0.24543692	0.95	32	1e-09	3.94e-24
0	0.9646261	0.26281625	0	1.8650727e-19	-3.1513064e-20	0.2699806	0.95	32	1e-09	3.94e-24
0	0.95808756	0.28573593	0	1.8651237e-19	-3.1512983e-20	0.2945243	0.95	32	1e-09	3.94e-24
0	0.95086884	0.30891132	0	1.8651771e-19	-3.151296e-20	0.319068	0.95	32	1e-09	3.94e-24
0	0.9430744	0.33194774	0	1.8652324e-19	-3.1512935e-20	0.3436117	0.95	32	1e-09	3.94e-24
0	0.9346911	0.3548694	0	1.8652888e-19	-3.1512935e-20	0.3681554	0.95	32	1e-09	3.94e-24
0	0.9257055	0.3776905	0	1.8653462e-19	-3.1512945e-20	0.3926991	0.95	32	1e-09	3.94e-24
0	0.91620463	0.40018848	0	1.8654034e-19	-3.1512945e-20	0.41724277	0.95	32	1e-09	3.94e-24
0	0.90605724	0.42266202	0	1.8654606e-19	-3.151298e-20	0.44178647	0.95	32	1e-09	3.94e-24
0	0.89547217	0.4446498	0	1.865516e-19	-3.1512974e-20	0.46633017	0.95	32	1e-09	3.94e-24
0	0.88408864	0.4668748	0	1.865571e-19	-3.151306e-20	0.49087384	0.95	32	1e-09	3.94e-24
0	0.87221825	0.48869324	0	1.8656234e-19	-3.151312e-20	0.5154175	0.95	32	1e-09	3.94e-24
0	0.8595531	0.51064193	0	1.8656733e-19	-3.1513245e-20	0.5399612	0.95	32	1e-09	3.94e-24
0	0.8460919	0.53265	0	1.8657211e-19	-3.151339e-20	0.5645049	0.95	32	1e-09	3.94e-24
0	0.83271796	0.55332553	0	1.865764e-19	-3.151341e-20	0.5890486	0.95	32	1e-09	3.94e-24
0	0.8185755	0.57404125	0	1.8658032e-19	-3.151346e-20	0.6135923	0.95	32	1e-09	3.94e-24
0	0.8038763	0.5944515	0	1.8658386e-19	-3.1513504e-20	0.638136	0.95	32	1e-09	3.94e-24
0	0.788766	0.6143602	0	1.8658683e-19	-3.1513526e-20	0.6626797	0.95	32	1e-09	3.94e-24
0	0.77329904	0.6337187	0	1.8658933e-19	-3.151354e-20	0.6872234	0.95	32	1e-09	3.94e-24
0	0.7571788	0.6528946	0	1.8659128e-19	-3.1513555e-20	0.7117671	0.95	32	1e-09	3.94e-24
0	0.74084646	0.67137045	0	1.865927e-19	-3.1513562e-20	0.7363108	0.95	32	1e-09	3.94e-24
0	0.7241228	0.68937504	0	1.8659354e-19	-3.1513568e-20	0.7608545	0.95	32	1e-09	3.94e-24
0	0.70696247	0.70696265	0	1.8659383e-19	-3.1513568e-20	0.7853982	0.95	32	1e-09	3.94e-24
0	0.99973756	-6.146729e-09	0	1.8501431e-19	-3.119181e-20	0	0.94	32	1e-09	3.9e-24
0	0.99946475	0.0233617	0	1.8501541e-19	-3.1191795e-20	0.024543693	0.94	32	1e-09	3.9e-24
0	0.9987583	0.044253767	0	1.8501872e-19	-3.1191475e-20	0.049087387	0.94	32	1e-09	3.9e-24
0	0.99753004	0.066425316	0	1.8502417e-19	-3.119107e-20	0.07363108	0.94	32	1e-09	3.9e-24
0	0.99582666	0.08837646	0	1.8503177e-19	-3.119045e-20	0.09817477	0.94	32	1e-09	3.9e-24
0	0.9937831	0.108992815	0	1.8504139e-19	-3.118912e-20	0.12271846	0.94	32	1e-09	3.9e-24
0	0.9911064	0.13113593	0	1.8505314e-19	-3.1188166e-20	0.14726216	0.94	32	1e-09	3.9e-24
0	0.9879846	0.15290387	0	1.8506677e-19	-3.118689e-20	0.17180584	0.94	32	1e-09	3.9e-24
0	0.9842282	0.17548056	0	1.8508227e-19	-3.1185995e-20	0.19634955	0.94	32	1e-09	3.9e-24
0	0.9800606	0.19744854	0	1.8509958e-19	-3.1184664e-20	0.22089323	0.94	32	1e-09	3.9e-24
0	0.97538173	0.21941265	0	1.8511841e-19	-3.1183265e-20	0.24543692	0.94	32	1e-09	3.9e-24
0	0.97016335	0.24145688	0	1.851387e-19	-3.1181904e-20	0.2699806	0.94	32	1e-09	3.9e-24
0	0.9642262	0.26418582	0	1.8516033e-19	-3.118116e-20	0.2945243	0.94	32	1e-09	3.9e-24
0	0.95786464	0.28640875	0	1.8518313e-19	-3.118005e-20	0.319068	0.94	32	1e-09	3.9e-24
0	0.95087373	0.30884066	0	1.8520693e-19	-3.1179245e-20	0.3436117	0.94	32	1e-09	3.9e-24
0	0.943328	0.33118668	0	1.8523145e-19	-3.1178496e-20	0.3681554	0.94	32	1e-09	3.9e-24
0	0.93508637	0.3538013	0	1.8525651e-19	-3.1178192e-20	0.3926991	0.94	32	1e-09	3.9e-24
0	0.92618895	0.37649122	0	1.8528196e-19	-3.1178185e-20	0.41724277	0.94	32	1e-09	3.9e-24
0	0.91677463	0.39888033	0	1.8530746e-19	-3.117809e-20	0.44178647	0.94	32	1e-09	3.9e-24
0	0.90655965	0.42159313	0	1.8533283e-19	-3.11786e-20	0.46633017	0.94	32	1e-09	3.9e-24
0	0.89558554	0.44444072	0	1.853578e-19	-3.1179526e-20	0.49087384	0.94	32	1e-09	3.9e-24
0	0.8836847	0.46766686	0	1.853821e-19	-3.1181116e-20	0.5154175	0.94	32	1e-09	3.9e-24
0	0.87117726	0.49058196	0	1.8540549e-19	-3.1182625e-20	0.5399612	0.94	32	1e-09	3.9e-24
0	0.8577401	0.5137232	0	1.854277e-19	-3.1184573e-20	0.5645049	0.94	32	1e-09	3.9e-24
0	0.843837	0.53626233	0	1.8544837e-19	-3.1186153e-20	0.5890486	0.94	32	1e-09	3.9e-24
0	0.8290744	0.5588218	0	1.8546735e-19	-3.118792e-20	0.6135923	0.94	32	1e-09	3.9e-24
0	0.8134973	0.5812706	0	1.854844e-19	-3.118969e-20	0.638136	0.94	32	1e-09	3.9e-24
0	0.7970963	0.6035704	0	1.8549925e-19	-3.1191375e-20	0.6626797	0.94	32	1e-09	3.9e-24
0	0.7802041	0.6252572	0	1.8551165e-19	-3.1192664e-20	0.6872234	0.94	32	1e-09	3.9e-24
0	0.76276684	0.64641774	0	1.8552146e-19	-3.1193647e-20	0.7117671	0.94	32	1e-09	3.9e-24
0	0.74364877	0.66832536	0	1.8552866e-19	-3.119461e-20	0.7363108	0.94	32	1e-09	3.9e-24
0	0.7248241	0.6886974	0	1.8553298e-19	-3.11949e-20	0.7608545	0.94	32	1e-09	3.9e-24
0	0.7069918	0.7069919	0	1.8553432e-19	-3.1194926e-20	0.7853982	0.94	32	1e-09	3.9e-24
0	0.99973756	-6.146729e-09	0	1.8501431e-19	-3.119181e-20	0	0.93	32	1e-09	3.9e-24
0	0.99946475	0.0233617	0	1.8501541e-19	-3.1191795e-20	0.024543693	0.93	32	1e-09	3.9e-24
0	0.9987565	0.044294123	0	1.8501867e-19	-3.119148e-20	0.049087387	0.93	32	1e-09	3.9e-24
0	0.9975708	0.06580971	0	1.8502416e-19	-3.119092e-20	0.07363108	0.93	32	1e-09	3.9e-24
0	0.99593383	0.087159805	0	1.8503173e-19	-3.1190053e-20	0.09817477	0.93	32	1e-09	3.9e-24
0	0.9937564	0.10923593	0	1.8504141e-19	-3.118922e-20	0.12271846	0.93	32	1e-09	3.9e-24
0	0.99113613	0.1309102	0	1.8505312e-19	-3.1188057e-20	0.14726216	0.93	32	1e-09	3.9e-24
0	0.98789734	0.15346688	0	1.850668e-19	-3.118721e-20	0.17180584	0.93	32	1e-09	3.9e-24
0	0.98435354	0.17477536	0	1.850823e-19	-3.118554e-20	0.19634955	0.93	32	1e-09	3.9e-24
0	0.9800597	0.19745272	0	1.8509958e-19	-3.1184664e-20	0.22089323	0.93	32	1e-09	3.9e-24
0	0.9755177	0.21880661	0	1.8511836e-19	-3.1182787e-20	0.24543692	0.93	32	1e-09	3.9e-24
0	0.97025913	0.24107173	0	1.8513869e-19	-3.1181575e-20	0.2699806	0.93	32	1e-09	3.9e-24
0	0.9643257	0.26382193	0	1.8516035e-19	-3.1180838e-20	0.2945243	0.93	32	1e-09	3.9e-24
0	0.9577702	0.2867244	0	1.8518319e-19	-3.1180344e-20	0.319068	0.93	32	1e-09	3.9e-24
0	0.95082426	0.30899298	0	1.852069e-19	-3.1179394e-20	0.3436117	0.93	32	1e-09	3.9e-24
0	0.94331664	0.33121917	0	1.8523142e-19	-3.1178528e-20	0.3681554	0.93	32	1e-09	3.9e-24
0	0.9350621	0.35386547	0	1.8525653e-19	-3.1178256e-20	0.3926991	0.93	32	1e-09	3.9e-24
0	0.92595965	0.37705493	0	1.8528198e-19	-3.1178773e-20	0.41724277	0.93	32	1e-09	3.9e-24
0	0.9167343	0.39897314	0	1.8530747e-19	-3.117819e-20	0.44178647	0.93	32	1e-09	3.9e-24
0	0.9062763	0.42220223	0	1.8533285e-19	-3.117925e-20	0.46633017	0.93	32	1e-09	3.9e-24
0	0.895394	0.4448265	0	1.8535782e-19	-3.117993e-20	0.49087384	0.93	32	1e-09	3.9e-24
0	0.8836612	0.4677113	0	1.8538212e-19	-3.118116e-20	0.5154175	0.93	32	1e-09	3.9e-24
0	0.87114334	0.49064198	0	1.8540549e-19	-3.1182686e-20	0.5399612	0.93	32	1e-09	3.9e-24
0	0.8578607	0.5135218	0	1.854277e-19	-3.1184386e-20	0.5645049	0.93	32	1e-09	3.9e-24
0	0.8437448	0.5364074	0	1.8544841e-19	-3.118628e-20	0.5890486	0.93	32	1e-09	3.9e-24
0	0.82906824	0.558831	0	1.8546736e-19	-3.1187924e-20	0.6135923	0.93	32	1e-09	3.9e-24
0	0.81354487	0.58120394	0	1.8548438e-19	-3.1189646e-20	0.638136	0.93	32	1e-09	3.9e-24
0	0.79723716	0.6033843	0	1.854992e-19	-3.119127e-20	0.6626797	0.93	32	1e-09	3.9e-24
0	0.7800282	0.62547654	0	1.8551168e-19	-3.1192764e-20	0.6872234	0.93	32	1e-09	3.9e-24
0	0.76246476	0.64677405	0	1.8552149e-19	-3.119377e-20	0.7117671	0.93	32	1e-09	3.9e-24
0	0.7436647	0.6683076	0	1.8552869e-19	-3.119461e-20	0.7363108	0.93	32	1e-09	3.9e-24
0	0.72430515	0.6892431	0	1.8553304e-19	-3.1194913e-20	0.7608545	0.93	32	1e-09	3.9e-24
0	0.7069918	0.706992	0	1.8553431e-19	-3.1194926e-20	0.7853982	0.93	32	1e-09	3.9e-24
0	0.99973756	-6.146729e-09	0	1.8501431e-19	-3.119181e-20	0	0.92	32	1e-09	3.9e-24
0	0.99946475	0.0233617	0	1.8501541e-19	-3.1191795e-20	0.024543693	0.92	32	1e-09	3.9e-24
0	0.99873954	0.044676315	0	1.850187e-19	-3.1191537e-20	0.049087387	0.92	32	1e-09	3.9e-24
0	0.99754375	0.06621939	0	1.8502415e-19	-3.1191026e-20	0.07363108	0.92	32	1e-09	3.9e-24
0	0.99592334	0.08727936	0	1.8503173e-19	-3.1190095e-20	0.09817477	0.92	32	1e-09	3.9e-24
0	0.993778	0.10903902	0	1.8504141e-19	-3.118914e-20	0.12271846	0.92	32	1e-09	3.9e-24
0	0.99113536	0.13091578	0	1.8505312e-19	-3.1188057e-20	0.14726216	0.92	32	1e-09	3.9e-24
0	0.98789674	0.15347038	0	1.850668e-19	-3.1187216e-20	0.17180584	0.92	32	1e-09	3.9e-24
0	0.98424685	0.17537576	0	1.8508228e-19	-3.118593e-20	0.19634955	0.92	32	1e-09	3.9e-24
0	0.98005825	0.19746	0	1.8509952e-19	-3.118467e-20	0.22089323	0.92	32	1e-09	3.9e-24
0	0.9755122	0.21883063	0	1.8511837e-19	-3.1182806e-20	0.24543692	0.92	32	1e-09	3.9e-24
0	0.9701751	0.24140975	0	1.8513869e-19	-3.118186e-20	0.2699806	0.92	32	1e-09	3.9e-24
0	0.96433026	0.26380536	0	1.8516033e-19	-3.1180822e-20	0.2945243	0.92	32	1e-09	3.9e-24
0	0.9578504	0.28645632	0	1.8518317e-19	-3.1180095e-20	0.319068	0.92	32	1e-09	3.9e-24
0	0.95087	0.30885217	0	1.852069e-19	-3.1179255e-20	0.3436117	0.92	32	1e-09	3.9e-24
0	0.9433054	0.3312513	0	1.8523145e-19	-3.117856e-20	0.3681554	0.92	32	1e-09	3.9e-24
0	0.9350402	0.35392338	0	1.8525653e-19	-3.1178315e-20	0.3926991	0.92	32	1e-09	3.9e-24
0	0.92627525	0.37627864	0	1.8528193e-19	-3.117796e-20	0.41724277	0.92	32	1e-09	3.9e-24
0	0.91673505	0.3989712	0	1.8530746e-19	-3.117819e-20	0.44178647	0.92	32	1e-09	3.9e-24
0	0.9064772	0.42177022	0	1.8533285e-19	-3.1178793e-20	0.46633017	0.92	32	1e-09	3.9e-24
0	0.8956737	0.444263	0	1.8535777e-19	-3.1179336e-20	0.49087384	0.92	32	1e-09	3.9e-24
0	0.88362753	0.46777484	0	1.8538211e-19	-3.1181226e-20	0.5154175	0.92	32	1e-09	3.9e-24
0	0.87133867	0.49029502	0	1.8540548e-19	-3.1182347e-20	0.5399612	0.92	32	1e-09	3.9e-24
0	0.85771525	0.51376474	0	1.854277e-19	-3.118461e-20	0.5645049	0.92	32	1e-09	3.9e-24
0	0.8439789	0.53603894	0	1.8544835e-19	-3.118596e-20	0.5890486	0.92	32	1e-09	3.9e-24
0	0.82906777	0.5588318	0	1.8546737e-19	-3.118793e-20	0.6135923	0.92	32	1e-09	3.9e-24
0	0.8134634	0.581318	0	1.854844e-19	-3.1189724e-20	0.638136	0.92	32	1e-09	3.9e-24
0	0.79738814	0.6031847	0	1.8549921e-19	-3.119115e-20	0.6626797	0.92	32	1e-09	3.9e-24
0	0.7800479	0.625452	0	1.8551165e-19	-3.1192755e-20	0.6872234	0.92	32	1e-09	3.9e-24
0	0.7624133	0.6468348	0	1.855215e-19	-3.119379e-20	0.7117671	0.92	32	1e-09	3.9e-24
0	0.7439651	0.66797316	0	1.8552862e-19	-3.1194545e-20	0.7363108	0.92	32	1e-09	3.9e-24
0	0.72430515	0.6892431	0	1.8553304e-19	-3.1194916e-20	0.7608545	0.92	32	1e-09	3.9e-24
0	0.7069918	0.706992	0	1.8553431e-19	-3.1194926e-20	0.7853982	0.92	32	1e-09	3.9e-24
0	0.99973756	-6.146729e-09	0	1.8501431e-19	-3.119181e-20	0	0.91	32	1e-09	3.9e-24
0	0.99946475	0.0233617	0	1.8501541e-19	-3.1191795e-20	0.024543693	0.91	32	1e-09	3.9e-24
0	0.99873674	0.044740815	0	1.850187e-19	-3.1191546e-20	0.049087387	0.91	32	1e-09	3.9e-24
0	0.9975891	0.065532506	0	1.8502413e-19	-3.1190855e-20	0.07363108	0.91	32	1e-09	3.9e-24
0	0.99592334	0.08727936	0	1.8503173e-19	-3.1190095e-20	0.09817477	0.91	32	1e-09	3.9e-24
0	0.99370056	0.10974324	0	1.8504143e-19	-3.1189436e-20	0.12271846	0.91	32	1e-09	3.9e-24
0	0.9910943	0.13122691	0	1.8505314e-19	-3.118821e-20	0.14726216	0.91	32	1e-09	3.9e-24
0	0.9879955	0.15283298	0	1.8506677e-19	-3.118685e-20	0.17180584	0.91	32	1e-09	3.9e-24
0	0.98424685	0.17537576	0	1.8508228e-19	-3.118593e-20	0.19634955	0.91	32	1e-09	3.9e-24
0	0.98008585	0.19732274	0	1.8509954e-19	-3.1184573e-20	0.22089323	0.91	32	1e-09	3.9e-24
0	0.97552645	0.21876763	0	1.8511837e-19	-3.1182754e-20	0.24543692	0.91	32	1e-09	3.9e-24
0	0.9702494	0.24111058	0	1.8513866e-19	-3.1181604e-20	0.2699806	0.91	32	1e-09	3.9e-24
0	0.9643257	0.26382193	0	1.8516035e-19	-3.1180838e-20	0.2945243	0.91	32	1e-09	3.9e-24
0	0.9577875	0.28666666	0	1.8518317e-19	-3.1180292e-20	0.319068	0.91	32	1e-09	3.9e-24
0	0.9508645	0.30886894	0	1.8520692e-19	-3.117927e-20	0.3436117	0.91	32	1e-09	3.9e-24
0	0.94326425	0.3313685	0	1.8523143e-19	-3.1178676e-20	0.3681554	0.91	32	1e-09	3.9e-24
0	0.9350179	0.35398224	0	1.8525653e-19	-3.117838e-20	0.3926991	0.91	32	1e-09	3.9e-24
0	0.9262348	0.3763782	0	1.8528192e-19	-3.1178066e-20	0.41724277	0.91	32	1e-09	3.9e-24
0	0.91671395	0.39902008	0	1.8530743e-19	-3.117824e-20	0.44178647	0.91	32	1e-09	3.9e-24
0	0.9065434	0.42162803	0	1.8533281e-19	-3.117864e-20	0.46633017	0.91	32	1e-09	3.9e-24
0	0.895278	0.44506022	0	1.8535781e-19	-3.118018e-20	0.49087384	0.91	32	1e-09	3.9e-24
0	0.8840079	0.46705532	0	1.8538206e-19	-3.1180486e-20	0.5154175	0.91	32	1e-09	3.9e-24
0	0.87129635	0.4903703	0	1.8540549e-19	-3.118242e-20	0.5399612	0.91	32	1e-09	3.9e-24
0	0.85784185	0.5135533	0	1.8542768e-19	-3.1184418e-20	0.5645049	0.91	32	1e-09	3.9e-24
0	0.84383696	0.5362625	0	1.8544837e-19	-3.1186153e-20	0.5890486	0.91	32	1e-09	3.9e-24
0	0.82907075	0.55882716	0	1.8546736e-19	-3.118792e-20	0.6135923	0.91	32	1e-09	3.9e-24
0	0.81348014	0.5812946	0	1.8548438e-19	-3.1189708e-20	0.638136	0.91	32	1e-09	3.9e-24
0	0.7971196	0.6035396	0	1.8549921e-19	-3.119136e-20	0.6626797	0.91	32	1e-09	3.9e-24
0	0.7801074	0.6253778	0	1.8551165e-19	-3.119272e-20	0.6872234	0.91	32	1e-09	3.9e-24
0	0.7627581	0.6464281	0	1.8552145e-19	-3.119365e-20	0.7117671	0.91	32	1e-09	3.9e-24
0	0.7436433	0.6683314	0	1.8552868e-19	-3.1194616e-20	0.7363108	0.91	32	1e-09	3.9e-24
0	0.7248391	0.6886816	0	1.8553295e-19	-3.1194897e-20	0.7608545	0.91	32	1e-09	3.9e-24
0	0.7069918	0.7069919	0	1.8553432e-19	-3.1194926e-20	0.7853982	0.91	32	1e-09	3.9e-24
0	0.99973756	-6.146729e-09	0	1.8501431e-19	-3.119181e-20	0	0.9	32	1e-09	3.9e-24
0	0.99948573	0.022445008	0	1.8501538e-19	-3.1191747e-20	0.024543693	0.9	32	1e-09	3.9e-24
0	0.9987583	0.044253767	0	1.8501872e-19	-3.1191475e-20	0.049087387	0.9	32	1e-09	3.9e-24
0	0.9975175	0.066613205	0	1.8502421e-19	-3.119111e-20	0.07363108	0.9	32	1e-09	3.9e-24
0	0.99592334	0.08727936	0	1.8503173e-19	-3.1190095e-20	0.09817477	0.9	32	1e-09	3.9e-24
0	0.99362534	0.110423066	0	1.8504147e-19	-3.1189698e-20	0.12271846	0.9	32	1e-09	3.9e-24
0	0.9910943	0.13122691	0	1.8505314e-19	-3.118821e-20	0.14726216	0.9	32	1e-09	3.9e-24
0	0.9879955	0.15283298	0	1.8506677e-19	-3.118685e-20	0.17180584	0.9	32	1e-09	3.9e-24
0	0.98424685	0.17537576	0	1.8508228e-19	-3.118593e-20	0.19634955	0.9	32	1e-09	3.9e-24
0	0.98019505	0.1967797	0	1.8509952e-19	-3.1184186e-20	0.22089323	0.9	32	1e-09	3.9e-24
0	0.9754045	0.2193109	0	1.8511841e-19	-3.1183184e-20	0.24543692	0.9	32	1e-09	3.9e-24
0	0.9701028	0.24170074	0	1.8513871e-19	-3.118211e-20	0.2699806	0.9	32	1e-09	3.9e-24
0	0.9643257	0.26382193	0	1.8516035e-19	-3.1180838e-20	0.2945243	0.9	32	1e-09	3.9e-24
0	0.957822	0.2865513	0	1.8518315e-19	-3.1180185e-20	0.319068	0.9	32	1e-09	3.9e-24
0	0.9508343	0.30896208	0	1.8520693e-19	-3.1179365e-20	0.3436117	0.9	32	1e-09	3.9e-24
0	0.9432834	0.33131385	0	1.8523143e-19	-3.117862e-20	0.3681554	0.9	32	1e-09	3.9e-24
0	0.9350575	0.3538778	0	1.8525655e-19	-3.1178276e-20	0.3926991	0.9	32	1e-09	3.9e-24