# t (s)	mx ()	my ()	mz ()	E_total (J)	E_Zeeman (J)	Angle (rad)	Roundness ()	Size (nm)	Cell_size (m)
0	0.99246705	2.4564166e-08	0	8.897735e-19	-3.1203166e-20	0	1	100	1e-09
0	0.70108974	0.7010756	0	8.820569e-19	-3.117215e-20	0.7853982	1	100	1e-09
0	0.9924669	2.5385056e-09	0	8.897736e-19	-3.120316e-20	0	0.999	100	1e-09
0	0.70108896	0.7010759	0	8.820569e-19	-3.1172143e-20	0.7853982	0.999	100	1e-09
0	0.9924671	-2.4797353e-09	0	8.897735e-19	-3.1203166e-20	0	0.998	100	1e-09
0	0.7010871	0.7010707	0	8.820569e-19	-3.1171985e-20	0.7853982	0.998	100	1e-09
0	0.99246716	2.7508378e-09	0	8.897737e-19	-3.120317e-20	0	0.997	100	1e-09
0	0.70108634	0.7010715	0	8.82057e-19	-3.117198e-20	0.7853982	0.997	100	1e-09
0	0.9924671	2.5745264e-09	0	8.897735e-19	-3.120317e-20	0	0.996	100	1e-09
0	0.7010864	0.7010715	0	8.820569e-19	-3.1171985e-20	0.7853982	0.996	100	1e-09
0	0.99246687	1.1962638e-09	0	8.897737e-19	-3.120316e-20	0	0.995	100	1e-09
0	0.70108694	0.7010709	0	8.820569e-19	-3.1171985e-20	0.7853982	0.995	100	1e-09
0	0.9924505	4.581177e-09	0	8.89029e-19	-3.1170886e-20	0	0.994	100	1e-09
0	0.70113885	0.7011258	0	8.821259e-19	-3.114263e-20	0.7853982	0.994	100	1e-09
0	0.992441	-1.5026541e-09	0	8.884223e-19	-3.113883e-20	0	0.993	100	1e-09
0	0.7011645	0.70115346	0	8.819731e-19	-3.1112085e-20	0.7853982	0.993	100	1e-09
0	0.9924541	-9.2799474e-10	0	8.880124e-19	-3.1107484e-20	0	0.992	100	1e-09
0	0.7011522	0.7011411	0	8.812742e-19	-3.1079803e-20	0.7853982	0.992	100	1e-09
0	0.9924544	-4.335713e-09	0	8.880124e-19	-3.110749e-20	0	0.991	100	1e-09
0	0.70114917	0.70113385	0	8.812742e-19	-3.1079576e-20	0.7853982	0.991	100	1e-09
0	0.992452	4.9271196e-09	0	8.880122e-19	-3.1107413e-20	0	0.99	100	1e-09
0	0.70115215	0.7011407	0	8.812742e-19	-3.1079796e-20	0.7853982	0.99	100	1e-09
0	0.992454	-1.4509426e-09	0	8.880122e-19	-3.1107484e-20	0	0.989	100	1e-09
0	0.7011493	0.70113385	0	8.812741e-19	-3.1079576e-20	0.7853982	0.989	100	1e-09
0	0.99244934	1.0039439e-08	0	8.874554e-19	-3.1075576e-20	0	0.988	100	1e-09
0	0.7011579	0.70114607	0	8.808553e-19	-3.1048308e-20	0.7853982	0.988	100	1e-09
0	0.99243957	5.764196e-10	0	8.867778e-19	-3.104351e-20	0	0.987	100	1e-09
0	0.7012117	0.7011983	0	8.809831e-19	-3.1018927e-20	0.7853982	0.987	100	1e-09
0	0.9923592	2.4249711e-09	0	8.848517e-19	-3.097749e-20	0	0.986	100	1e-09
0	0.70123935	0.7012278	0	8.802286e-19	-3.0956724e-20	0.7853982	0.986	100	1e-09
0	0.9923594	-2.4440655e-10	0	8.848519e-19	-3.0977494e-20	0	0.985	100	1e-09
0	0.70123965	0.7012275	0	8.802284e-19	-3.095672e-20	0.7853982	0.985	100	1e-09
0	0.99235916	6.7059043e-09	0	8.848516e-19	-3.097749e-20	0	0.984	100	1e-09
0	0.7012454	0.7012319	0	8.802285e-19	-3.0956944e-20	0.7853982	0.984	100	1e-09
0	0.9923597	4.338216e-09	0	8.848516e-19	-3.09775e-20	0	0.983	100	1e-09
0	0.70124376	0.70123136	0	8.802284e-19	-3.0956898e-20	0.7853982	0.983	100	1e-09
0	0.99234724	8.983512e-09	0	8.841378e-19	-3.0945357e-20	0	0.982	100	1e-09
0	0.7012999	0.7012869	0	8.803655e-19	-3.0927624e-20	0.7853982	0.982	100	1e-09
0	0.9923471	4.889324e-09	0	8.841377e-19	-3.0945353e-20	0	0.981	100	1e-09
0	0.70129603	0.70128196	0	8.803656e-19	-3.092743e-20	0.7853982	0.981	100	1e-09
0	0.9923272	8.0743323e-10	0	8.83329e-19	-3.0912983e-20	0	0.98	100	1e-09
0	0.7013573	0.70134526	0	8.804852e-19	-3.089844e-20	0.7853982	0.98	100	1e-09
0	0.9921953	1.2641088e-10	0	8.813895e-19	-3.0877114e-20	0	0.979	100	1e-09
0	0.7014199	0.70140547	0	8.803584e-19	-3.0869405e-20	0.7853982	0.979	100	1e-09
0	0.99219555	-3.746359e-09	0	8.813896e-19	-3.0877124e-20	0	0.978	100	1e-09
0	0.7014157	0.70139986	0	8.803584e-19	-3.0869182e-20	0.7853982	0.978	100	1e-09
0	0.9921955	-4.5507917e-09	0	8.813896e-19	-3.0877124e-20	0	0.977	100	1e-09
0	0.7014193	0.70140576	0	8.803584e-19	-3.0869398e-20	0.7853982	0.977	100	1e-09
0	0.9921954	3.2560377e-10	0	8.813895e-19	-3.0877124e-20	0	0.976	100	1e-09
0	0.7014152	0.70140046	0	8.803585e-19	-3.0869188e-20	0.7853982	0.976	100	1e-09
0	0.9921953	2.0493884e-09	0	8.813896e-19	-3.087712e-20	0	0.975	100	1e-09
0	0.70141286	0.7014027	0	8.803584e-19	-3.086919e-20	0.7853982	0.975	100	1e-09
0	0.9921954	2.2677347e-09	0	8.813897e-19	-3.087712e-20	0	0.974	100	1e-09
0	0.7014185	0.70140636	0	8.803584e-19	-3.086939e-20	0.7853982	0.974	100	1e-09
0	0.9921954	5.1560316e-09	0	8.813896e-19	-3.0877124e-20	0	0.973	100	1e-09
0	0.7014145	0.70140076	0	8.803584e-19	-3.086918e-20	0.7853982	0.973	100	1e-09
0	0.9921954	-1.5360837e-09	0	8.813897e-19	-3.087712e-20	0	0.972	100	1e-09
0	0.70141524	0.70140034	0	8.803584e-19	-3.086919e-20	0.7853982	0.972	100	1e-09
0	0.9921758	5.573556e-09	0	8.806217e-19	-3.0844764e-20	0	0.971	100	1e-09
0	0.7014586	0.70144403	0	8.803493e-19	-3.0839358e-20	0.7853982	0.971	100	1e-09
0	0.99217606	2.864428e-09	0	8.806218e-19	-3.0844773e-20	0	0.97	100	1e-09
0	0.7014622	0.70145077	0	8.803493e-19	-3.0839587e-20	0.7853982	0.97	100	1e-09
0	0.9921758	3.5278096e-09	0	8.806215e-19	-3.0844767e-20	0	0.969	100	1e-09
0	0.70145977	0.701443	0	8.803493e-19	-3.0839358e-20	0.7853982	0.969	100	1e-09
0	0.99215096	6.6560055e-09	0	8.79823e-19	-3.081224e-20	0	0.968	100	1e-09
0	0.70148313	0.7014773	0	8.801723e-19	-3.0808885e-20	0.7853982	0.968	100	1e-09
0	0.99215096	1.086303e-09	0	8.798229e-19	-3.081224e-20	0	0.967	100	1e-09
0	0.7014905	0.7014803	0	8.801723e-19	-3.0809114e-20	0.7853982	0.967	100	1e-09
0	0.99215096	3.731048e-09	0	8.79823e-19	-3.081224e-20	0	0.966	100	1e-09
0	0.70147526	0.7014696	0	8.801723e-19	-3.0808542e-20	0.7853982	0.966	100	1e-09
0	0.992151	2.491204e-09	0	8.79823e-19	-3.0812245e-20	0	0.965	100	1e-09
0	0.7014857	0.7014752	0	8.801724e-19	-3.080889e-20	0.7853982	0.965	100	1e-09
0	0.992151	5.9689094e-09	0	8.79823e-19	-3.0812245e-20	0	0.964	100	1e-09
0	0.7014905	0.7014771	0	8.801723e-19	-3.0809033e-20	0.7853982	0.964	100	1e-09
0	0.992151	3.4354815e-09	0	8.798229e-19	-3.0812245e-20	0	0.963	100	1e-09
0	0.70148754	0.7014735	0	8.801724e-19	-3.080889e-20	0.7853982	0.963	100	1e-09
0	0.99213547	1.890503e-09	0	8.790992e-19	-3.078001e-20	0	0.962	100	1e-09
0	0.70154124	0.7015265	0	8.802194e-19	-3.077949e-20	0.7853982	0.962	100	1e-09
0	0.9921356	-6.1479777e-10	0	8.790994e-19	-3.078001e-20	0	0.961	100	1e-09
0	0.7015405	0.7015271	0	8.802193e-19	-3.077949e-20	0.7853982	0.961	100	1e-09
0	0.9921356	3.1585237e-09	0	8.790993e-19	-3.0780017e-20	0	0.96	100	1e-09
0	0.70154184	0.7015273	0	8.802194e-19	-3.077952e-20	0.7853982	0.96	100	1e-09
0	0.9921356	1.7291188e-10	0	8.790992e-19	-3.0780014e-20	0	0.959	100	1e-09
0	0.7015417	0.70152664	0	8.802193e-19	-3.0779507e-20	0.7853982	0.959	100	1e-09
0	0.99213564	4.292057e-09	0	8.790995e-19	-3.0780014e-20	0	0.958	100	1e-09
0	0.701537	0.70152116	0	8.802195e-19	-3.0779284e-20	0.7853982	0.958	100	1e-09
0	0.992136	-2.301649e-09	0	8.790993e-19	-3.0780027e-20	0	0.957	100	1e-09
0	0.7015368	0.70152175	0	8.802194e-19	-3.0779294e-20	0.7853982	0.957	100	1e-09
0	0.99212915	-1.0943161e-09	0	8.784789e-19	-3.074807e-20	0	0.956	100	1e-09
0	0.701595	0.7015802	0	8.803393e-19	-3.0750097e-20	0.7853982	0.956	100	1e-09
0	0.9921278	1.21471e-08	0	8.784789e-19	-3.0748026e-20	0	0.955	100	1e-09
0	0.7015906	0.70157504	0	8.803393e-19	-3.0749884e-20	0.7853982	0.955	100	1e-09
0	0.99212915	3.788757e-09	0	8.78479e-19	-3.0748068e-20	0	0.954	100	1e-09
0	0.70159477	0.70158136	0	8.803394e-19	-3.075012e-20	0.7853982	0.954	100	1e-09
0	0.9922153	4.0585246e-09	0	8.785637e-19	-3.0703115e-20	0	0.953	100	1e-09
0	0.7016484	0.7016358	0	8.804754e-19	-3.0704854e-20	0.7853982	0.953	100	1e-09
0	0.99220985	-1.5306504e-09	0	8.774251e-19	-3.063944e-20	0	0.952	100	1e-09
0	0.7017077	0.7016953	0	8.801343e-19	-3.064395e-20	0.7853982	0.952	100	1e-09
0	0.9919838	2.4274347e-09	0	8.739679e-19	-3.0568973e-20	0	0.951	100	1e-09
0	0.7018272	0.7018116	0	8.799534e-19	-3.0585575e-20	0.7853982	0.951	100	1e-09
0	0.9919492	3.067943e-09	0	8.730336e-19	-3.0536167e-20	0	0.95	100	1e-09
0	0.701866	0.7018509	0	8.797856e-19	-3.0555512e-20	0.7853982	0.95	100	1e-09
0	0.9919435	1.0997738e-09	0	8.730335e-19	-3.0535986e-20	0	0.949	100	1e-09
0	0.70186293	0.7018543	0	8.797857e-19	-3.055552e-20	0.7853982	0.949	100	1e-09
0	0.9919492	1.7067793e-09	0	8.730336e-19	-3.053616e-20	0	0.948	100	1e-09
0	0.70184356	0.7018379	0	8.797857e-19	-3.0554743e-20	0.7853982	0.948	100	1e-09
0	0.9919492	-9.748876e-10	0	8.730337e-19	-3.0536164e-20	0	0.947	100	1e-09
0	0.7018634	0.701852	0	8.797857e-19	-3.0555483e-20	0.7853982	0.947	100	1e-09
0	0.9919851	-6.9970335e-10	0	8.728247e-19	-3.050553e-20	0	0.946	100	1e-09
0	0.7018523	0.701839	0	8.790683e-19	-3.0523197e-20	0.7853982	0.946	100	1e-09
0	0.991985	2.624372e-09	0	8.728244e-19	-3.0505526e-20	0	0.945	100	1e-09
0	0.7018524	0.70183814	0	8.790684e-19	-3.052318e-20	0.7853982	0.945	100	1e-09
0	0.991985	8.49529e-09	0	8.728245e-19	-3.0505526e-20	0	0.944	100	1e-09
0	0.7018489	0.70183253	0	8.790682e-19	-3.0522984e-20	0.7853982	0.944	100	1e-09
0	0.99197346	8.7117463e-10	0	8.721859e-19	-3.0473424e-20	0	0.943	100	1e-09
0	0.7018659	0.7018536	0	8.7875e-19	-3.049205e-20	0.7853982	0.943	100	1e-09
0	0.9919732	3.022918e-09	0	8.721858e-19	-3.047342e-20	0	0.942	100	1e-09
0	0.7018625	0.7018477	0	8.787499e-19	-3.0491842e-20	0.7853982	0.942	100	1e-09
0	0.9919731	4.095879e-09	0	8.721856e-19	-3.0473418e-20	0	0.941	100	1e-09
0	0.7018667	0.7018528	0	8.7875e-19	-3.0492042e-20	0.7853982	0.941	100	1e-09
0	0.9919362	1.6897823e-09	0	8.712506e-19	-3.0440537e-20	0	0.94	100	1e-09
0	0.7018543	0.70183885	0	8.780272e-19	-3.045971e-20	0.7853982	0.94	100	1e-09
0	0.99193627	-3.8651343e-10	0	8.712507e-19	-3.0440537e-20	0	0.939	100	1e-09
0	0.70185226	0.70184255	0	8.780272e-19	-3.0459743e-20	0.7853982	0.939	100	1e-09
0	0.9919361	2.886226e-09	0	8.712506e-19	-3.0440537e-20	0	0.938	100	1e-09
0	0.7018541	0.7018409	0	8.780273e-19	-3.0459753e-20	0.7853982	0.938	100	1e-09
0	0.9919175	8.652162e-09	0	8.704973e-19	-3.0408226e-20	0	0.937	100	1e-09
0	0.70189726	0.7018818	0	8.779924e-19	-3.0429807e-20	0.7853982	0.937	100	1e-09
0	0.99191755	-4.7129975e-09	0	8.704973e-19	-3.0408226e-20	0	0.936	100	1e-09
0	0.7018921	0.7018778	0	8.779922e-19	-3.042961e-20	0.7853982	0.936	100	1e-09
0	0.9919172	2.5314864e-09	0	8.704973e-19	-3.0408216e-20	0	0.935	100	1e-09
0	0.7018943	0.7018759	0	8.779922e-19	-3.0429616e-20	0.7853982	0.935	100	1e-09
0	0.9919175	7.295036e-09	0	8.704972e-19	-3.0408226e-20	0	0.934	100	1e-09
0	0.70189667	0.701882	0	8.779922e-19	-3.0429803e-20	0.7853982	0.934	100	1e-09
0	0.9919175	-7.0228334e-09	0	8.704974e-19	-3.0408226e-20	0	0.933	100	1e-09
0	0.7018971	0.70188224	0	8.779921e-19	-3.042982e-20	0.7853982	0.933	100	1e-09
0	0.9919175	1.860701e-08	0	8.704974e-19	-3.0408226e-20	0	0.932	100	1e-09
0	0.7018966	0.70188355	0	8.779922e-19	-3.0429832e-20	0.7853982	0.932	100	1e-09
0	0.99191743	6.3189947e-09	0	8.704975e-19	-3.0408226e-20	0	0.931	100	1e-09
0	0.70189166	0.7018785	0	8.779922e-19	-3.0429616e-20	0.7853982	0.931	100	1e-09
0	0.9918945	2.9467553e-09	0	8.697193e-19	-3.037578e-20	0	0.93	100	1e-09
0	0.7019207	0.70190537	0	8.777948e-19	-3.0399065e-20	0.7853982	0.93	100	1e-09
0	0.9918799	-3.5070724e-11	0	8.690121e-19	-3.0343596e-20	0	0.929	100	1e-09
0	0.7019697	0.7019525	0	8.778161e-19	-3.0369377e-20	0.7853982	0.929	100	1e-09
0	0.99188966	-1.560331e-11	0	8.685446e-19	-3.0312153e-20	0	0.928	100	1e-09
0	0.70195556	0.7019388	0	8.770374e-19	-3.0337004e-20	0.7853982	0.928	100	1e-09
0	0.9918893	-4.169985e-09	0	8.685443e-19	-3.0312137e-20	0	0.927	100	1e-09
0	0.70195585	0.70193976	0	8.770372e-19	-3.0337036e-20	0.7853982	0.927	100	1e-09
0	0.9918897	-1.3282317e-09	0	8.685445e-19	-3.0312153e-20	0	0.926	100	1e-09
0	0.7019558	0.70194036	0	8.770374e-19	-3.0337046e-20	0.7853982	0.926	100	1e-09
0	0.99201465	3.4480412e-09	0	8.693163e-19	-3.0284226e-20	0	0.925	100	1e-09
0	0.70201576	0.702002	0	8.775269e-19	-3.0307904e-20	0.7853982	0.925	100	1e-09
0	0.992001	6.3208754e-09	0	8.68611e-19	-3.0252063e-20	0	0.924	100	1e-09
0	0.702063	0.7020501	0	8.775844e-19	-3.027819e-20	0.7853982	0.924	100	1e-09
0	0.99199504	6.280558e-09	0	8.680039e-19	-3.022014e-20	0	0.923	100	1e-09
0	0.70212865	0.70211697	0	8.777314e-19	-3.0249278e-20	0.7853982	0.923	100	1e-09
0	0.9919439	2.5109474e-09	0	8.668745e-19	-3.018684e-20	0	0.922	100	1e-09
0	0.70218676	0.7021717	0	8.776816e-19	-3.0219935e-20	0.7853982	0.922	100	1e-09
0	0.9918029	8.263157e-10	0	8.641978e-19	-3.011907e-20	0	0.921	100	1e-09
0	0.7022309	0.7022162	0	8.765404e-19	-3.0158278e-20	0.7853982	0.921	100	1e-09
0	0.9918029	5.8882357e-09	0	8.6419793e-19	-3.011907e-20	0	0.92	100	1e-09
0	0.70222783	0.7022107	0	8.765404e-19	-3.0158094e-20	0.7853982	0.92	100	1e-09
0	0.9918027	4.3180393e-11	0	8.6419767e-19	-3.011907e-20	0	0.919	100	1e-09
0	0.7022252	0.7022133	0	8.765404e-19	-3.0158094e-20	0.7853982	0.919	100	1e-09
0	0.9918028	5.4289533e-09	0	8.641978e-19	-3.011907e-20	0	0.918	100	1e-09
0	0.702231	0.7022163	0	8.765405e-19	-3.0158285e-20	0.7853982	0.918	100	1e-09
0	0.99180275	6.453506e-09	0	8.6419777e-19	-3.011907e-20	0	0.917	100	1e-09
0	0.7022308	0.70221657	0	8.765405e-19	-3.015829e-20	0.7853982	0.917	100	1e-09
0	0.9918027	8.451581e-09	0	8.6419767e-19	-3.0119068e-20	0	0.916	100	1e-09
0	0.7022305	0.7022173	0	8.765403e-19	-3.0158298e-20	0.7853982	0.916	100	1e-09
0	0.9918029	2.3611824e-09	0	8.641978e-19	-3.011907e-20	0	0.915	100	1e-09
0	0.70222574	0.70221287	0	8.765405e-19	-3.01581e-20	0.7853982	0.915	100	1e-09
0	0.99178445	6.1616614e-09	0	8.634582e-19	-3.0086775e-20	0	0.914	100	1e-09
0	0.70226485	0.7022467	0	8.76443e-19	-3.0127886e-20	0.7853982	0.914	100	1e-09
0	0.9917843	9.409502e-09	0	8.6345817e-19	-3.008677e-20	0	0.913	100	1e-09
0	0.7022663	0.7022535	0	8.76443e-19	-3.012806e-20	0.7853982	0.913	100	1e-09
0	0.9917615	8.601211e-09	0	8.6268227e-19	-3.005434e-20	0	0.912	100	1e-09
0	0.70228714	0.70227236	0	8.761579e-19	-3.0097135e-20	0.7853982	0.912	100	1e-09
0	0.9917616	6.189804e-09	0	8.626824e-19	-3.005435e-20	0	0.911	100	1e-09
0	0.7022862	0.7022751	0	8.761579e-19	-3.0097164e-20	0.7853982	0.911	100	1e-09
0	0.9917615	3.5974423e-09	0	8.6268243e-19	-3.005434e-20	0	0.91	100	1e-09
0	0.702284	0.70226777	0	8.761579e-19	-3.009696e-20	0.7853982	0.91	100	1e-09
0	0.9917615	2.545156e-09	0	8.6268217e-19	-3.005434e-20	0	0.909	100	1e-09
0	0.7022881	0.7022723	0	8.76158e-19	-3.0097154e-20	0.7853982	0.909	100	1e-09
0	0.9917615	2.6769378e-09	0	8.626825e-19	-3.0054338e-20	0	0.908	100	1e-09
0	0.7022851	0.7022749	0	8.76158e-19	-3.009714e-20	0.7853982	0.908	100	1e-09
0	0.9917615	1.418128e-09	0	8.6268217e-19	-3.005434e-20	0	0.907	100	1e-09
0	0.7022865	0.70227504	0	8.76158e-19	-3.009717e-20	0.7853982	0.907	100	1e-09
0	0.9917615	4.3704302e-09	0	8.626822e-19	-3.005434e-20	0	0.906	100	1e-09
0	0.70228446	0.70227593	0	8.76158e-19	-3.0097148e-20	0.7853982	0.906	100	1e-09
0	0.9917615	9.653498e-09	0	8.626823e-19	-3.005434e-20	0	0.905	100	1e-09
0	0.7022848	0.7022666	0	8.76158e-19	-3.009696e-20	0.7853982	0.905	100	1e-09
0	0.9917616	4.2996224e-09	0	8.6268227e-19	-3.0054344e-20	0	0.904	100	1e-09
0	0.70228827	0.70227194	0	8.76158e-19	-3.0097148e-20	0.7853982	0.904	100	1e-09
0	0.99174696	4.713713e-09	0	8.619937e-19	-3.0022165e-20	0	0.903	100	1e-09
0	0.70232624	0.7023112	0	8.761234e-19	-3.006702e-20	0.7853982	0.903	100	1e-09
0	0.9918495	5.3584293e-09	0	8.628299e-19	-3.00094e-20	0	0.902	100	1e-09
0	0.70236045	0.7023465	0	8.76444e-19	-3.0052612e-20	0.7853982	0.902	100	1e-09
0	0.9918495	4.3202335e-09	0	8.6282987e-19	-3.00094e-20	0	0.901	100	1e-09
0	0.7023577	0.7023408	0	8.764441e-19	-3.0052435e-20	0.7853982	0.901	100	1e-09
0	0.9918491	4.4758646e-09	0	8.6282977e-19	-3.000939e-20	0	0.9	100	1e-09
0	0.70236105	0.70234734	0	8.76444e-19	-3.0052645e-20	0.7853982	0.9	100	1e-09
0	0.9918402	9.466063e-10	0	8.6226703e-19	-2.9977378e-20	0	0.899	100	1e-09
0	0.70237315	0.70235866	0	8.761669e-19	-3.0021364e-20	0.7853982	0.899	100	1e-09
0	0.99188185	2.5111655e-09	0	8.6221094e-19	-2.9946898e-20	0	0.898	100	1e-09
0	0.7024389	0.7024217	0	8.764671e-19	-2.9992325e-20	0.7853982	0.898	100	1e-09
0	0.99187505	5.357454e-09	0	8.610427e-19	-2.988321e-20	0	0.897	100	1e-09
0	0.7024829	0.7024663	0	8.759283e-19	-2.9930635e-20	0.7853982	0.897	100	1e-09
0	0.99187475	6.2793792e-09	0	8.6104275e-19	-2.9883205e-20	0	0.896	100	1e-09
0	0.7024854	0.7024728	0	8.759285e-19	-2.9930826e-20	0.7853982	0.896	100	1e-09
0	0.9918751	2.0337751e-09	0	8.6104285e-19	-2.988321e-20	0	0.895	100	1e-09
0	0.7024862	0.7024718	0	8.759284e-19	-2.993082e-20	0.7853982	0.895	100	1e-09
0	0.99187547	-2.0082107e-09	0	8.6053197e-19	-2.985148e-20	0	0.894	100	1e-09
0	0.70254445	0.7025294	0	8.760746e-19	-2.9901493e-20	0.7853982	0.894	100	1e-09
0	0.9918528	-4.266538e-09	0	8.5972753e-19	-2.9819063e-20	0	0.893	100	1e-09
0	0.70259887	0.70258915	0	8.76066e-19	-2.987213e-20	0.7853982	0.893	100	1e-09
0	0.9917379	2.478223e-09	0	8.5676855e-19	-2.9720402e-20	0	0.892	100	1e-09
0	0.70266515	0.70265055	0	8.749915e-19	-2.977945e-20	0.7853982	0.892	100	1e-09
0	0.99153763	8.617347e-09	0	8.5411087e-19	-2.9682672e-20	0	0.891	100	1e-09
0	0.70272434	0.7027124	0	8.746114e-19	-2.9750216e-20	0.7853982	0.891	100	1e-09
0	0.99153775	3.1936749e-09	0	8.541108e-19	-2.9682675e-20	0	0.89	100	1e-09
0	0.7027257	0.70271045	0	8.746114e-19	-2.9750207e-20	0.7853982	0.89	100	1e-09
0	0.99153775	1.2583556e-09	0	8.54111e-19	-2.9682672e-20	0	0.889	100	1e-09
0	0.7027218	0.7027063	0	8.746115e-19	-2.975003e-20	0.7853982	0.889	100	1e-09
0	0.9915378	-3.2414604e-09	0	8.541108e-19	-2.9682675e-20	0	0.888	100	1e-09
0	0.7027252	0.7027116	0	8.746114e-19	-2.9750216e-20	0.7853982	0.888	100	1e-09
0	0.9915376	1.4335697e-09	0	8.54111e-19	-2.968267e-20	0	0.887	100	1e-09
0	0.70271957	0.70270836	0	8.746114e-19	-2.9750026e-20	0.7853982	0.887	100	1e-09
0	0.9915378	3.783031e-09	0	8.541108e-19	-2.9682675e-20	0	0.886	100	1e-09
0	0.70272076	0.70271474	0	8.746115e-19	-2.9750184e-20	0.7853982	0.886	100	1e-09
0	0.9915378	-1.7362123e-09	0	8.541108e-19	-2.968268e-20	0	0.885	100	1e-09
0	0.7027195	0.70270836	0	8.746115e-19	-2.9750026e-20	0.7853982	0.885	100	1e-09
0	0.99153775	-1.1667665e-09	0	8.541107e-19	-2.9682675e-20	0	0.884	100	1e-09
0	0.7027215	0.70270634	0	8.746115e-19	-2.9750026e-20	0.7853982	0.884	100	1e-09
0	0.9915374	4.459995e-10	0	8.5411087e-19	-2.968267e-20	0	0.883	100	1e-09
0	0.7027239	0.7027124	0	8.746115e-19	-2.9750207e-20	0.7853982	0.883	100	1e-09
0	0.99153745	2.190176e-10	0	8.5411087e-19	-2.968267e-20	0	0.882	100	1e-09
0	0.70272636	0.7027104	0	8.746115e-19	-2.9750213e-20	0.7853982	0.882	100	1e-09
0	0.9915374	1.182695e-09	0	8.5411087e-19	-2.968267e-20	0	0.881	100	1e-09
0	0.7027222	0.70270556	0	8.746115e-19	-2.9750022e-20	0.7853982	0.881	100	1e-09
0	0.9915376	2.0069977e-09	0	8.541109e-19	-2.968267e-20	0	0.88	100	1e-09
0	0.70272446	0.70271134	0	8.746115e-19	-2.9750194e-20	0.7853982	0.88	100	1e-09
0	0.9915377	6.017011e-09	0	8.5411087e-19	-2.968267e-20	0	0.879	100	1e-09
0	0.7027171	0.70271033	0	8.746114e-19	-2.9750016e-20	0.7853982	0.879	100	1e-09
0	0.9915208	-5.899871e-10	0	8.5339e-19	-2.9650438e-20	0	0.878	100	1e-09
0	0.70275855	0.70274866	0	8.744907e-19	-2.9719898e-20	0.7853982	0.878	100	1e-09
0	0.99152076	3.6993788e-09	0	8.533899e-19	-2.965044e-20	0	0.877	100	1e-09
0	0.7027604	0.7027477	0	8.744908e-19	-2.9719924e-20	0.7853982	0.877	100	1e-09
0	0.99152076	3.8349164e-09	0	8.533899e-19	-2.965044e-20	0	0.876	100	1e-09
0	0.7027615	0.70274585	0	8.744908e-19	-2.97199e-20	0.7853982	0.876	100	1e-09
0	0.9916494	5.435292e-09	0	8.543575e-19	-2.962255e-20	0	0.875	100	1e-09
0	0.7028203	0.7028071	0	8.749742e-19	-2.969064e-20	0.7853982	0.875	100	1e-09
0	0.9916509	5.750555e-09	0	8.5435773e-19	-2.9622595e-20	0	0.874	100	1e-09
0	0.70282483	0.70281124	0	8.749742e-19	-2.969082e-20	0.7853982	0.874	100	1e-09
0	0.99165094	3.4000507e-09	0	8.543575e-19	-2.9622598e-20	0	0.873	100	1e-09
0	0.7028253	0.7028112	0	8.749742e-19	-2.9690827e-20	0.7853982	0.873	100	1e-09
0	0.9916319	3.2998282e-09	0	8.5361017e-19	-2.95903e-20	0	0.872	100	1e-09
0	0.70284164	0.7028243	0	8.746805e-19	-2.965964e-20	0.7853982	0.872	100	1e-09
0	0.9916319	4.4503734e-09	0	8.536101e-19	-2.95903e-20	0	0.871	100	1e-09
0	0.7028428	0.7028311	0	8.746805e-19	-2.965981e-20	0.7853982	0.871	100	1e-09
0	0.99165165	8.874309e-09	0	8.53369e-19	-2.9559154e-20	0	0.87	100	1e-09
0	0.7029032	0.70289254	0	8.748891e-19	-2.9630572e-20	0.7853982	0.87	100	1e-09
0	0.9916352	1.4749027e-08	0	8.5264506e-19	-2.952693e-20	0	0.869	100	1e-09
0	0.7029476	0.7029302	0	8.748098e-19	-2.9600493e-20	0.7853982	0.869	100	1e-09
0	0.9916352	8.2873197e-10	0	8.526449e-19	-2.9526933e-20	0	0.868	100	1e-09
0	0.7029507	0.7029356	0	8.748097e-19	-2.960067e-20	0.7853982	0.868	100	1e-09
0	0.991635	-3.8634123e-09	0	8.5264495e-19	-2.9526926e-20	0	0.867	100	1e-09
0	0.7029479	0.7029387	0	8.748097e-19	-2.9600678e-20	0.7853982	0.867	100	1e-09
0	0.99163747	1.1061647e-09	0	8.521791e-19	-2.9495267e-20	0	0.866	100	1e-09
0	0.702995	0.70298666	0	8.749343e-19	-2.9570864e-20	0.7853982	0.866	100	1e-09
0	0.9916376	5.803357e-09	0	8.5217904e-19	-2.949527e-20	0	0.865	100	1e-09
0	0.70300764	0.7029944	0	8.749343e-19	-2.9571297e-20	0.7853982	0.865	100	1e-09
0	0.99164313	-2.2813638e-09	0	8.5112155e-19	-2.943197e-20	0	0.864	100	1e-09
0	0.7030479	0.70303327	0	8.742957e-19	-2.9509323e-20	0.7853982	0.864	100	1e-09
0	0.99165463	7.003787e-10	0	8.5001866e-19	-2.9368844e-20	0	0.863	100	1e-09
0	0.7030804	0.70306754	0	8.733535e-19	-2.9447097e-20	0.7853982	0.863	100	1e-09
0	0.991604	-1.2491509e-10	0	8.488942e-19	-2.933561e-20	0	0.862	100	1e-09
0	0.703128	0.7031134	0	8.732153e-19	-2.941723e-20	0.7853982	0.862	100	1e-09
0	0.99141014	2.7995144e-09	0	8.46287e-19	-2.9298152e-20	0	0.861	100	1e-09
0	0.70318705	0.7031729	0	8.728147e-19	-2.938789e-20	0.7853982	0.861	100	1e-09
0	0.99141026	2.1661948e-09	0	8.46287e-19	-2.929816e-20	0	0.86	100	1e-09
0	0.7031834	0.70316786	0	8.728146e-19	-2.9387708e-20	0.7853982	0.86	100	1e-09
0	0.9914098	1.8999586e-09	0	8.462871e-19	-2.9298146e-20	0	0.859	100	1e-09
0	0.703186	0.7031736	0	8.728145e-19	-2.9387876e-20	0.7853982	0.859	100	1e-09
0	0.99140996	-2.1056865e-09	0	8.462872e-19	-2.929815e-20	0	0.858	100	1e-09
0	0.7031843	0.7031758	0	8.728146e-19	-2.9387892e-20	0.7853982	0.858	100	1e-09
0	0.99140996	3.3360206e-09	0	8.462872e-19	-2.9298146e-20	0	0.857	100	1e-09
0	0.7031857	0.7031731	0	8.728145e-19	-2.9387863e-20	0.7853982	0.857	100	1e-09
0	0.9914099	5.724079e-09	0	8.462872e-19	-2.9298146e-20	0	0.856	100	1e-09
0	0.70318395	0.7031677	0	8.728146e-19	-2.9387714e-20	0.7853982	0.856	100	1e-09
0	0.99150544	5.127325e-09	0	8.465818e-19	-2.925338e-20	0	0.855	100	1e-09
0	0.7032313	0.7032198	0	8.727973e-19	-2.9342054e-20	0.7853982	0.855	100	1e-09
0	0.99147606	9.586252e-10	0	8.456936e-19	-2.9220785e-20	0	0.854	100	1e-09
0	0.7032543	0.7032455	0	8.725103e-19	-2.9311245e-20	0.7853982	0.854	100	1e-09
0	0.991476	1.5127671e-09	0	8.4569364e-19	-2.922078e-20	0	0.853	100	1e-09
0	0.7032551	0.70324403	0	8.725104e-19	-2.9311235e-20	0.7853982	0.853	100	1e-09
0	0.9914763	2.4956615e-09	0	8.4569333e-19	-2.922079e-20	0	0.852	100	1e-09
0	0.7032563	0.70324314	0	8.725104e-19	-2.931124e-20	0.7853982	0.852	100	1e-09
0	0.99147606	5.3634475e-09	0	8.4569354e-19	-2.9220785e-20	0	0.851	100	1e-09
0	0.70325714	0.70324224	0	8.725103e-19	-2.931124e-20	0.7853982	0.851	100	1e-09
0	0.9914762	2.912279e-09	0	8.456935e-19	-2.922079e-20	0	0.85	100	1e-09
0	0.7032539	0.70323706	0	8.725102e-19	-2.9311064e-20	0.7853982	0.85	100	1e-09
0	0.99147624	-1.4520947e-09	0	8.456935e-19	-2.9220792e-20	0	0.849	100	1e-09
0	0.7032499	0.7032411	0	8.725104e-19	-2.931106e-20	0.7853982	0.849	100	1e-09
0	0.9915173	1.6294095e-08	0	8.4574544e-19	-2.9190273e-20	0	0.848	100	1e-09
0	0.70332205	0.7033097	0	8.727705e-19	-2.9282165e-20	0.7853982	0.848	100	1e-09
0	0.9915173	-1.4285678e-08	0	8.4574544e-19	-2.9190273e-20	0	0.847	100	1e-09
0	0.7033228	0.70330757	0	8.727705e-19	-2.9282142e-20	0.7853982	0.847	100	1e-09
0	0.99151736	4.271936e-09	0	8.4574544e-19	-2.9190276e-20	0	0.846	100	1e-09
0	0.70331854	0.7033038	0	8.727706e-19	-2.928197e-20	0.7853982	0.846	100	1e-09
0	0.9915175	-1.7334747e-08	0	8.4574534e-19	-2.9190276e-20	0	0.845	100	1e-09
0	0.7033196	0.7033121	0	8.727706e-19	-2.9282168e-20	0.7853982	0.845	100	1e-09
0	0.9915134	3.741505e-09	0	8.4514816e-19	-2.915843e-20	0	0.844	100	1e-09
0	0.70332634	0.7033126	0	8.723186e-19	-2.925049e-20	0.7853982	0.844	100	1e-09
0	0.9914919	1.6313363e-09	0	8.442684e-19	-2.912607e-20	0	0.843	100	1e-09
0	0.70329785	0.7032863	0	8.714243e-19	-2.9217522e-20	0.7853982	0.843	100	1e-09
0	0.9914873	5.0389026e-09	0	8.4321354e-19	-2.906248e-20	0	0.842	100	1e-09
0	0.7033959	0.7033842	0	8.714123e-19	-2.9157926e-20	0.7853982	0.842	100	1e-09
0	0.9914872	3.9672714e-09	0	8.4321344e-19	-2.9062474e-20	0	0.841	100	1e-09
0	0.7033961	0.70338327	0	8.714124e-19	-2.9157913e-20	0.7853982	0.841	100	1e-09
0	0.9914877	8.353434e-09	0	8.432134e-19	-2.9062487e-20	0	0.84	100	1e-09
0	0.703396	0.70338494	0	8.714123e-19	-2.915795e-20	0.7853982	0.84	100	1e-09
0	0.9914873	5.297151e-09	0	8.432134e-19	-2.906248e-20	0	0.839	100	1e-09
0	0.7033966	0.7033838	0	8.714124e-19	-2.915794e-20	0.7853982	0.839	100	1e-09
0	0.9914872	5.335787e-09	0	8.4321344e-19	-2.9062474e-20	0	0.838	100	1e-09
0	0.70339763	0.7033821	0	8.714122e-19	-2.915792e-20	0.7853982	0.838	100	1e-09
0	0.9914908	2.799057e-09	0	8.4277426e-19	-2.903085e-20	0	0.837	100	1e-09
0	0.7034537	0.7034414	0	8.715104e-19	-2.9128477e-20	0.7853982	0.837	100	1e-09
0	0.99149084	5.6693628e-09	0	8.427743e-19	-2.9030854e-20	0	0.836	100	1e-09
0	0.70345855	0.7034451	0	8.715105e-19	-2.912865e-20	0.7853982	0.836	100	1e-09
0	0.99147856	2.7960056e-09	0	8.420985e-19	-2.8998765e-20	0	0.835	100	1e-09
0	0.7034957	0.7034804	0	8.714254e-19	-2.9098324e-20	0.7853982	0.835	100	1e-09
0	0.9914707	5.671581e-09	0	8.4151074e-19	-2.8966812e-20	0	0.834	100	1e-09
0	0.70355624	0.7035453	0	8.714629e-19	-2.9069075e-20	0.7853982	0.834	100	1e-09
0	0.9914708	3.2499383e-09	0	8.4151084e-19	-2.896681e-20	0	0.833	100	1e-09
0	0.7035481	0.70354277	0	8.714629e-19	-2.9068852e-20	0.7853982	0.833	100	1e-09
0	0.99147093	4.9942557e-09	0	8.415106e-19	-2.8966815e-20	0	0.832	100	1e-09
0	0.7035567	0.7035444	0	8.714629e-19	-2.9069065e-20	0.7853982	0.832	100	1e-09
0	0.9913721	3.240184e-09	0	8.38726e-19	-2.886876e-20	0	0.831	100	1e-09
0	0.7036722	0.70365894	0	8.708423e-19	-2.8978282e-20	0.7853982	0.831	100	1e-09
0	0.9911805	4.9568083e-09	0	8.361135e-19	-2.8831458e-20	0	0.83	100	1e-09
0	0.70371747	0.7037007	0	8.703706e-19	-2.8948226e-20	0.7853982	0.83	100	1e-09
0	0.9913093	-2.502673e-09	0	8.3715253e-19	-2.8803482e-20	0	0.829	100	1e-09
0	0.70378345	0.70377105	0	8.707923e-19	-2.8919184e-20	0.7853982	0.829	100	1e-09
0	0.9913093	2.2011215e-09	0	8.3715264e-19	-2.880348e-20	0	0.828	100	1e-09
0	0.70377916	0.7037678	0	8.707923e-19	-2.8919036e-20	0.7853982	0.828	100	1e-09
0	0.99130976	2.1744535e-10	0	8.371523e-19	-2.8803495e-20	0	0.827	100	1e-09
0	0.7037837	0.7037717	0	8.707922e-19	-2.8919204e-20	0.7853982	0.827	100	1e-09
0	0.9913093	4.0781263e-09	0	8.3715253e-19	-2.880348e-20	0	0.826	100	1e-09
0	0.70378363	0.7037711	0	8.707924e-19	-2.891919e-20	0.7853982	0.826	100	1e-09
0	0.9913093	3.2965537e-09	0	8.3715264e-19	-2.880349e-20	0	0.825	100	1e-09
0	0.7037836	0.7037722	0	8.707923e-19	-2.891921e-20	0.7853982	0.825	100	1e-09
0	0.9913092	1.4564737e-10	0	8.371525e-19	-2.880348e-20	0	0.824	100	1e-09
0	0.70378	0.7037673	0	8.707923e-19	-2.8919032e-20	0.7853982	0.824	100	1e-09
0	0.9913093	5.674093e-09	0	8.3715264e-19	-2.880349e-20	0	0.823	100	1e-09
0	0.7037843	0.7037708	0	8.707923e-19	-2.8919197e-20	0.7853982	0.823	100	1e-09
0	0.99130934	-1.762128e-09	0	8.3715253e-19	-2.8803486e-20	0	0.822	100	1e-09
0	0.70378363	0.7037719	0	8.707923e-19	-2.8919207e-20	0.7853982	0.822	100	1e-09
0	0.9913302	7.436205e-09	0	8.3698637e-19	-2.877237e-20	0	0.821	100	1e-09
0	0.70384586	0.70383066	0	8.709415e-19	-2.8889842e-20	0.7853982	0.821	100	1e-09
0	0.99133074	2.4191797e-09	0	8.369864e-19	-2.8772385e-20	0	0.82	100	1e-09
0	0.70384336	0.70383286	0	8.709415e-19	-2.8889835e-20	0.7853982	0.82	100	1e-09
0	0.9913308	7.779162e-09	0	8.369863e-19	-2.8772385e-20	0	0.819	100	1e-09
0	0.703849	0.70383584	0	8.709415e-19	-2.8890007e-20	0.7853982	0.819	100	1e-09
0	0.99133074	5.121761e-09	0	8.369864e-19	-2.8772385e-20	0	0.818	100	1e-09
0	0.70384693	0.7038371	0	8.709415e-19	-2.8889997e-20	0.7853982	0.818	100	1e-09
0	0.9913308	1.8010362e-09	0	8.3698637e-19	-2.877239e-20	0	0.817	100	1e-09
0	0.7038494	0.7038355	0	8.709416e-19	-2.8890013e-20	0.7853982	0.817	100	1e-09
0	0.99131656	9.971114e-10	0	8.3627903e-19	-2.874025e-20	0	0.816	100	1e-09
0	0.70387614	0.7038628	0	8.707272e-19	-2.885927e-20	0.7853982	0.816	100	1e-09
0	0.991325	4.365382e-09	0	8.3593544e-19	-2.8708777e-20	0	0.815	100	1e-09
0	0.7039333	0.7039229	0	8.708142e-19	-2.8829816e-20	0.7853982	0.815	100	1e-09
0	0.99132496	5.9419407e-09	0	8.359353e-19	-2.870877e-20	0	0.814	100	1e-09
0	0.703936	0.7039283	0	8.708141e-19	-2.8829978e-20	0.7853982	0.814	100	1e-09
0	0.99132484	5.3512457e-09	0	8.3593523e-19	-2.870877e-20	0	0.813	100	1e-09
0	0.7039342	0.7039219	0	8.708141e-19	-2.8829813e-20	0.7853982	0.813	100	1e-09
0	0.991325	2.4060025e-09	0	8.359354e-19	-2.8708777e-20	0	0.812	100	1e-09
0	0.7039352	0.70392084	0	8.70814e-19	-2.8829807e-20	0.7853982	0.812	100	1e-09
0	0.99142516	-1.3977569e-09	0	8.3632804e-19	-2.8664086e-20	0	0.811	100	1e-09
0	0.70398253	0.7039687	0	8.707526e-19	-2.878398e-20	0.7853982	0.811	100	1e-09
0	0.9914254	1.9317083e-09	0	8.36328e-19	-2.8664096e-20	0	0.81	100	1e-09
0	0.7039782	0.7039651	0	8.707526e-19	-2.8783808e-20	0.7853982	0.81	100	1e-09
0	0.9914221	2.0225953e-10	0	8.3582067e-19	-2.8632275e-20	0	0.809	100	1e-09
0	0.7040389	0.70402426	0	8.707783e-19	-2.8754404e-20	0.7853982	0.809	100	1e-09
0	0.99142206	3.3145797e-09	0	8.358206e-19	-2.8632275e-20	0	0.808	100	1e-09
0	0.70404047	0.7040303	0	8.707783e-19	-2.875456e-20	0.7853982	0.808	100	1e-09
0	0.99142194	2.3404316e-09	0	8.3582057e-19	-2.863227e-20	0	0.807	100	1e-09
0	0.7040374	0.7040257	0	8.707785e-19	-2.8754404e-20	0.7853982	0.807	100	1e-09
0	0.9914077	-1.8078918e-09	0	8.3510893e-19	-2.860013e-20	0	0.806	100	1e-09
0	0.70407337	0.70406306	0	8.706073e-19	-2.8724034e-20	0.7853982	0.806	100	1e-09
0	0.99140775	5.671615e-09	0	8.35109e-19	-2.860013e-20	0	0.805	100	1e-09
0	0.70407057	0.70405865	0	8.706073e-19	-2.8723886e-20	0.7853982	0.805	100	1e-09
0	0.9914012	3.987984e-09	0	8.345489e-19	-2.856822e-20	0	0.804	100	1e-09