# t (s)	mx ()	my ()	mz ()	E_total (J)	E_Zeeman (J)	Angle (rad)	Roundness ()	Size (nm)	Cell_size (m)	Volume (m^3)
0	0.9890129	1.6646489e-08	0	7.112351e-19	-5.100142e-19	0	1	128	1e-09	6.446e-23
0	0.98850775	0.031185944	0	7.1118554e-19	-5.099948e-19	0.024543693	1	128	1e-09	6.446e-23
0	0.98698133	0.06279986	0	7.110377e-19	-5.099425e-19	0.049087387	1	128	1e-09	6.446e-23
0	0.98447174	0.09391656	0	7.107979e-19	-5.098597e-19	0.07363108	1	128	1e-09	6.446e-23
0	0.9810596	0.12423681	0	7.1047375e-19	-5.097564e-19	0.09817477	1	128	1e-09	6.446e-23
0	0.9768231	0.15369226	0	7.1007546e-19	-5.096416e-19	0.12271846	1	128	1e-09	6.446e-23
0	0.9718734	0.18206741	0	7.0961374e-19	-5.0952754e-19	0.14726216	1	128	1e-09	6.446e-23
0	0.96629095	0.20939073	0	7.0909986e-19	-5.0942094e-19	0.17180584	1	128	1e-09	6.446e-23
0	0.96013826	0.23573588	0	7.085444e-19	-5.0932643e-19	0.19634955	1	128	1e-09	6.446e-23
0	0.95345473	0.2612191	0	7.079572e-19	-5.0924496e-19	0.22089323	1	128	1e-09	6.446e-23
0	0.9463188	0.2857784	0	7.0734706e-19	-5.09181e-19	0.24543692	1	128	1e-09	6.446e-23
0	0.93871284	0.30965763	0	7.0672244e-19	-5.091301e-19	0.2699806	1	128	1e-09	6.446e-23
0	0.93071073	0.3327659	0	7.060909e-19	-5.090956e-19	0.2945243	1	128	1e-09	6.446e-23
0	0.9223624	0.35509962	0	7.0545897e-19	-5.090779e-19	0.319068	1	128	1e-09	6.446e-23
0	0.913568	0.37701282	0	7.048324e-19	-5.0906706e-19	0.3436117	1	128	1e-09	6.446e-23
0	0.90438926	0.39840707	0	7.0421654e-19	-5.090656e-19	0.3681554	1	128	1e-09	6.446e-23
0	0.8948868	0.41920817	0	7.0361627e-19	-5.09075e-19	0.3926991	1	128	1e-09	6.446e-23
0	0.8846979	0.4402048	0	7.0303486e-19	-5.090734e-19	0.41724277	1	128	1e-09	6.446e-23
0	0.87492067	0.45925036	0	7.02478e-19	-5.091174e-19	0.44178647	1	128	1e-09	6.446e-23
0	0.86402065	0.47936508	0	7.019464e-19	-5.091268e-19	0.46633017	1	128	1e-09	6.446e-23
0	0.85320437	0.49829677	0	7.01445e-19	-5.0915903e-19	0.49087384	1	128	1e-09	6.446e-23
0	0.84207016	0.5168329	0	7.009757e-19	-5.0919284e-19	0.5154175	1	128	1e-09	6.446e-23
0	0.83061475	0.5349993	0	7.0054045e-19	-5.09227e-19	0.5399612	1	128	1e-09	6.446e-23
0	0.81887347	0.5527601	0	7.001415e-19	-5.0926165e-19	0.5645049	1	128	1e-09	6.446e-23
0	0.80680484	0.570194	0	6.9978063e-19	-5.09294e-19	0.5890486	1	128	1e-09	6.446e-23
0	0.79444534	0.58726066	0	6.994589e-19	-5.093247e-19	0.6135923	1	128	1e-09	6.446e-23
0	0.7817693	0.6040062	0	6.9917777e-19	-5.0935213e-19	0.638136	1	128	1e-09	6.446e-23
0	0.7688043	0.6204032	0	6.9893836e-19	-5.093762e-19	0.6626797	1	128	1e-09	6.446e-23
0	0.75553584	0.636478	0	6.987415e-19	-5.093962e-19	0.6872234	1	128	1e-09	6.446e-23
0	0.74194765	0.65225405	0	6.985877e-19	-5.094114e-19	0.7117671	1	128	1e-09	6.446e-23
0	0.7280594	0.66771203	0	6.984778e-19	-5.094218e-19	0.7363108	1	128	1e-09	6.446e-23
0	0.7138784	0.68284714	0	6.984118e-19	-5.094274e-19	0.7608545	1	128	1e-09	6.446e-23
0	0.69855607	0.69854337	0	6.9838983e-19	-5.094395e-19	0.7853982	1	128	1e-09	6.446e-23
0	0.9889656	4.7009894e-09	0	7.0951365e-19	-5.0809093e-19	0	0.99	128	1e-09	6.422e-23
0	0.98852533	0.029114267	0	7.094783e-19	-5.080788e-19	0.024543693	0.99	128	1e-09	6.422e-23
0	0.9872034	0.058532063	0	7.093726e-19	-5.080503e-19	0.049087387	0.99	128	1e-09	6.422e-23
0	0.9850089	0.087754376	0	7.092002e-19	-5.080036e-19	0.07363108	0.99	128	1e-09	6.422e-23
0	0.98199934	0.11640598	0	7.0896766e-19	-5.079446e-19	0.09817477	0.99	128	1e-09	6.422e-23
0	0.97823584	0.14437692	0	7.0868115e-19	-5.078786e-19	0.12271846	0.99	128	1e-09	6.422e-23
0	0.97378254	0.1715987	0	7.083491e-19	-5.078115e-19	0.14726216	0.99	128	1e-09	6.422e-23
0	0.96871305	0.19798274	0	7.0797903e-19	-5.077483e-19	0.17180584	0.99	128	1e-09	6.422e-23
0	0.9630631	0.2236357	0	7.075789e-19	-5.076911e-19	0.19634955	0.99	128	1e-09	6.422e-23
0	0.9568913	0.24852447	0	7.0715696e-19	-5.0764255e-19	0.22089323	0.99	128	1e-09	6.422e-23
0	0.9502263	0.27272502	0	7.0671933e-19	-5.0760305e-19	0.24543692	0.99	128	1e-09	6.422e-23
0	0.94307274	0.29636097	0	7.0627276e-19	-5.0757136e-19	0.2699806	0.99	128	1e-09	6.422e-23
0	0.93549246	0.3193452	0	7.058225e-19	-5.0754944e-19	0.2945243	0.99	128	1e-09	6.422e-23
0	0.927497	0.34175062	0	7.053746e-19	-5.075361e-19	0.319068	0.99	128	1e-09	6.422e-23
0	0.9190841	0.36366254	0	7.0493247e-19	-5.075294e-19	0.3436117	0.99	128	1e-09	6.422e-23
0	0.9102167	0.38522592	0	7.045005e-19	-5.0752633e-19	0.3681554	0.99	128	1e-09	6.422e-23
0	0.9009247	0.40639997	0	7.0408177e-19	-5.0752726e-19	0.3926991	0.99	128	1e-09	6.422e-23
0	0.89090526	0.42784348	0	7.036789e-19	-5.075199e-19	0.41724277	0.99	128	1e-09	6.422e-23
0	0.8811967	0.44743896	0	7.032958e-19	-5.075421e-19	0.44178647	0.99	128	1e-09	6.422e-23
0	0.87075585	0.46737924	0	7.029332e-19	-5.075534e-19	0.46633017	0.99	128	1e-09	6.422e-23
0	0.8595346	0.48766032	0	7.025923e-19	-5.075555e-19	0.49087384	0.99	128	1e-09	6.422e-23
0	0.8482916	0.5069261	0	7.0227577e-19	-5.075694e-19	0.5154175	0.99	128	1e-09	6.422e-23
0	0.83667296	0.5258479	0	7.019847e-19	-5.0758377e-19	0.5399612	0.99	128	1e-09	6.422e-23
0	0.82466173	0.5444632	0	7.017198e-19	-5.0759737e-19	0.5645049	0.99	128	1e-09	6.422e-23
0	0.81227267	0.5627558	0	7.0148147e-19	-5.076105e-19	0.5890486	0.99	128	1e-09	6.422e-23
0	0.7994933	0.5807486	0	7.0127054e-19	-5.076223e-19	0.6135923	0.99	128	1e-09	6.422e-23
0	0.7863439	0.59841716	0	7.010873e-19	-5.076329e-19	0.638136	0.99	128	1e-09	6.422e-23
0	0.77281183	0.61578107	0	7.0093176e-19	-5.076418e-19	0.6626797	0.99	128	1e-09	6.422e-23
0	0.75890857	0.6328268	0	7.008048e-19	-5.07649e-19	0.6872234	0.99	128	1e-09	6.422e-23
0	0.7446261	0.64956504	0	7.0070604e-19	-5.0765434e-19	0.7117671	0.99	128	1e-09	6.422e-23
0	0.72997683	0.6659806	0	7.006354e-19	-5.0765775e-19	0.7363108	0.99	128	1e-09	6.422e-23
0	0.7149754	0.6820585	0	7.005934e-19	-5.076596e-19	0.7608545	0.99	128	1e-09	6.422e-23
0	0.6987266	0.69871	0	7.0057933e-19	-5.076652e-19	0.7853982	0.99	128	1e-09	6.422e-23
0	0.98882127	4.6300537e-09	0	7.06062e-19	-5.048526e-19	0	0.98	128	1e-09	6.382e-23
0	0.9884667	0.02616166	0	7.0604477e-19	-5.0484735e-19	0.024543693	0.98	128	1e-09	6.382e-23
0	0.9873858	0.052963153	0	7.0599447e-19	-5.048393e-19	0.049087387	0.98	128	1e-09	6.382e-23
0	0.9855819	0.07962258	0	7.0591123e-19	-5.0482585e-19	0.07363108	0.98	128	1e-09	6.382e-23
0	0.9830701	0.10607357	0	7.057977e-19	-5.048077e-19	0.09817477	0.98	128	1e-09	6.382e-23
0	0.97987497	0.13222209	0	7.0565604e-19	-5.0478625e-19	0.12271846	0.98	128	1e-09	6.382e-23
0	0.976009	0.15810442	0	7.0548947e-19	-5.047621e-19	0.14726216	0.98	128	1e-09	6.382e-23
0	0.97152305	0.18352643	0	7.0530124e-19	-5.047375e-19	0.17180584	0.98	128	1e-09	6.382e-23
0	0.96644264	0.20850118	0	7.050946e-19	-5.047137e-19	0.19634955	0.98	128	1e-09	6.382e-23
0	0.96079004	0.23304409	0	7.0487364e-19	-5.046912e-19	0.22089323	0.98	128	1e-09	6.382e-23
0	0.9546058	0.25709352	0	7.046422e-19	-5.0467116e-19	0.24543692	0.98	128	1e-09	6.382e-23
0	0.9478831	0.28076535	0	7.04403e-19	-5.046533e-19	0.2699806	0.98	128	1e-09	6.382e-23
0	0.9406638	0.30398485	0	7.041603e-19	-5.046382e-19	0.2945243	0.98	128	1e-09	6.382e-23
0	0.9329771	0.32673284	0	7.0391695e-19	-5.0462644e-19	0.319068	0.98	128	1e-09	6.382e-23
0	0.92475045	0.34926364	0	7.0367583e-19	-5.0461533e-19	0.3436117	0.98	128	1e-09	6.382e-23
0	0.91578144	0.37207764	0	7.0343905e-19	-5.0459987e-19	0.3681554	0.98	128	1e-09	6.382e-23
0	0.9069824	0.3929844	0	7.0321043e-19	-5.046023e-19	0.3926991	0.98	128	1e-09	6.382e-23
0	0.89740366	0.41434148	0	7.0299087e-19	-5.0459837e-19	0.41724277	0.98	128	1e-09	6.382e-23
0	0.8869697	0.4361846	0	7.027811e-19	-5.0458855e-19	0.44178647	0.98	128	1e-09	6.382e-23
0	0.8764826	0.45685536	0	7.0258483e-19	-5.045878e-19	0.46633017	0.98	128	1e-09	6.382e-23
0	0.8659452	0.47649646	0	7.024024e-19	-5.045938e-19	0.49087384	0.98	128	1e-09	6.382e-23
0	0.85414684	0.4973086	0	7.0223296e-19	-5.045888e-19	0.5154175	0.98	128	1e-09	6.382e-23
0	0.8423159	0.51707304	0	7.0207906e-19	-5.045901e-19	0.5399612	0.98	128	1e-09	6.382e-23
0	0.8300401	0.53654027	0	7.019406e-19	-5.045916e-19	0.5645049	0.98	128	1e-09	6.382e-23
0	0.8173264	0.5557014	0	7.018176e-19	-5.0459315e-19	0.5890486	0.98	128	1e-09	6.382e-23
0	0.8041512	0.5745911	0	7.0171e-19	-5.045946e-19	0.6135923	0.98	128	1e-09	6.382e-23
0	0.79054433	0.59316415	0	7.0161765e-19	-5.04596e-19	0.638136	0.98	128	1e-09	6.382e-23
0	0.77649236	0.61143774	0	7.015402e-19	-5.0459713e-19	0.6626797	0.98	128	1e-09	6.382e-23
0	0.76199734	0.6294053	0	7.014776e-19	-5.0459785e-19	0.6872234	0.98	128	1e-09	6.382e-23
0	0.7470837	0.6470339	0	7.0142967e-19	-5.045984e-19	0.7117671	0.98	128	1e-09	6.382e-23
0	0.7317213	0.66435593	0	7.013957e-19	-5.045986e-19	0.7363108	0.98	128	1e-09	6.382e-23
0	0.7156468	0.68164897	0	7.0137544e-19	-5.0460163e-19	0.7608545	0.98	128	1e-09	6.382e-23
0	0.69886816	0.6988484	0	7.0136913e-19	-5.0460427e-19	0.7853982	0.98	128	1e-09	6.382e-23
0	0.98875505	4.1592254e-09	0	7.046485e-19	-5.038696e-19	0	0.97	128	1e-09	6.37e-23
0	0.9884228	0.025336368	0	7.0463737e-19	-5.0386554e-19	0.024543693	0.97	128	1e-09	6.37e-23
0	0.9874202	0.051107813	0	7.0460506e-19	-5.0386125e-19	0.049087387	0.97	128	1e-09	6.37e-23
0	0.98574144	0.07685111	0	7.0455124e-19	-5.0385386e-19	0.07363108	0.97	128	1e-09	6.37e-23
0	0.98339605	0.102470785	0	7.044784e-19	-5.03844e-19	0.09817477	0.97	128	1e-09	6.37e-23
0	0.9803985	0.12789376	0	7.0438736e-19	-5.0383194e-19	0.12271846	0.97	128	1e-09	6.37e-23
0	0.9767687	0.1530563	0	7.0428086e-19	-5.038184e-19	0.14726216	0.97	128	1e-09	6.37e-23
0	0.9725319	0.17789523	0	7.0416143e-19	-5.038045e-19	0.17180584	0.97	128	1e-09	6.37e-23
0	0.96771425	0.20237012	0	7.0403095e-19	-5.0379073e-19	0.19634955	0.97	128	1e-09	6.37e-23
0	0.9623361	0.22647713	0	7.038924e-19	-5.037777e-19	0.22089323	0.97	128	1e-09	6.37e-23
0	0.95641035	0.250239	0	7.03748e-19	-5.037656e-19	0.24543692	0.97	128	1e-09	6.37e-23
0	0.9499431	0.27369022	0	7.0360045e-19	-5.0375444e-19	0.2699806	0.97	128	1e-09	6.37e-23
0	0.94295466	0.2968056	0	7.0345223e-19	-5.0374446e-19	0.2945243	0.97	128	1e-09	6.37e-23
0	0.9354632	0.31957185	0	7.0330525e-19	-5.037358e-19	0.319068	0.97	128	1e-09	6.37e-23
0	0.9275013	0.34193808	0	7.031612e-19	-5.037288e-19	0.3436117	0.97	128	1e-09	6.37e-23
0	0.9190163	0.36408097	0	7.030226e-19	-5.0372244e-19	0.3681554	0.97	128	1e-09	6.37e-23
0	0.910003	0.38601583	0	7.0288975e-19	-5.037167e-19	0.3926991	0.97	128	1e-09	6.37e-23
0	0.900157	0.40841258	0	7.0276396e-19	-5.0370796e-19	0.41724277	0.97	128	1e-09	6.37e-23
0	0.8905589	0.42891017	0	7.026479e-19	-5.0370827e-19	0.44178647	0.97	128	1e-09	6.37e-23
0	0.88011056	0.44993553	0	7.0254047e-19	-5.0370507e-19	0.46633017	0.97	128	1e-09	6.37e-23
0	0.86918646	0.47067228	0	7.0244276e-19	-5.037026e-19	0.49087384	0.97	128	1e-09	6.37e-23
0	0.85732704	0.49192557	0	7.0235404e-19	-5.0369793e-19	0.5154175	0.97	128	1e-09	6.37e-23
0	0.8454051	0.51213056	0	7.0227603e-19	-5.0369664e-19	0.5399612	0.97	128	1e-09	6.37e-23
0	0.83300215	0.532057	0	7.0220763e-19	-5.036957e-19	0.5645049	0.97	128	1e-09	6.37e-23
0	0.8201152	0.55170673	0	7.0214854e-19	-5.036952e-19	0.5890486	0.97	128	1e-09	6.37e-23
0	0.80674404	0.57107574	0	7.020987e-19	-5.0369457e-19	0.6135923	0.97	128	1e-09	6.37e-23
0	0.79287934	0.59017104	0	7.02057e-19	-5.0369426e-19	0.638136	0.97	128	1e-09	6.37e-23
0	0.77853197	0.6089704	0	7.02023e-19	-5.036941e-19	0.6626797	0.97	128	1e-09	6.37e-23
0	0.76366323	0.6275177	0	7.0199665e-19	-5.036951e-19	0.6872234	0.97	128	1e-09	6.37e-23
0	0.7481757	0.6459107	0	7.0197664e-19	-5.0369705e-19	0.7117671	0.97	128	1e-09	6.37e-23
0	0.7322359	0.66393065	0	7.019629e-19	-5.036986e-19	0.7363108	0.97	128	1e-09	6.37e-23
0	0.7157839	0.6816383	0	7.019552e-19	-5.0369974e-19	0.7608545	0.97	128	1e-09	6.37e-23
0	0.6989306	0.6989093	0	7.01953e-19	-5.036998e-19	0.7853982	0.97	128	1e-09	6.37e-23
0	0.98858136	7.695016e-09	0	7.0068846e-19	-5.014085e-19	0	0.96	128	1e-09	6.34e-23
0	0.9882857	0.024094759	0	7.006897e-19	-5.014074e-19	0.024543693	0.96	128	1e-09	6.34e-23
0	0.9874017	0.048155818	0	7.006939e-19	-5.0140535e-19	0.049087387	0.96	128	1e-09	6.34e-23
0	0.9859284	0.07218942	0	7.007017e-19	-5.014014e-19	0.07363108	0.96	128	1e-09	6.34e-23
0	0.98387116	0.09613753	0	7.00714e-19	-5.0139594e-19	0.09817477	0.96	128	1e-09	6.34e-23
0	0.9812358	0.12001462	0	7.007323e-19	-5.013913e-19	0.12271846	0.96	128	1e-09	6.34e-23
0	0.97802764	0.14375845	0	7.007586e-19	-5.013853e-19	0.14726216	0.96	128	1e-09	6.34e-23
0	0.9743627	0.16671145	0	7.007942e-19	-5.0137687e-19	0.17180584	0.96	128	1e-09	6.34e-23
0	0.9701565	0.18960248	0	7.008409e-19	-5.013696e-19	0.19634955	0.96	128	1e-09	6.34e-23
0	0.96542746	0.21232255	0	7.009014e-19	-5.013619e-19	0.22089323	0.96	128	1e-09	6.34e-23
0	0.9601946	0.23481432	0	7.009766e-19	-5.01354e-19	0.24543692	0.96	128	1e-09	6.34e-23
0	0.9544778	0.2570358	0	7.0106866e-19	-5.0134574e-19	0.2699806	0.96	128	1e-09	6.34e-23
0	0.9482564	0.27909335	0	7.011784e-19	-5.013374e-19	0.2945243	0.96	128	1e-09	6.34e-23
0	0.9415661	0.30088043	0	7.0130683e-19	-5.0132884e-19	0.319068	0.96	128	1e-09	6.34e-23
0	0.93434805	0.3225956	0	7.0145516e-19	-5.0132093e-19	0.3436117	0.96	128	1e-09	6.34e-23
0	0.9266671	0.34404427	0	7.01623e-19	-5.013132e-19	0.3681554	0.96	128	1e-09	6.34e-23
0	0.9184848	0.36534166	0	7.0181017e-19	-5.013061e-19	0.3926991	0.96	128	1e-09	6.34e-23
0	0.9098027	0.38647816	0	7.0201614e-19	-5.0129994e-19	0.41724277	0.96	128	1e-09	6.34e-23
0	0.9006021	0.40748757	0	7.0223953e-19	-5.0129534e-19	0.44178647	0.96	128	1e-09	6.34e-23
0	0.89081895	0.42848957	0	7.024787e-19	-5.012936e-19	0.46633017	0.96	128	1e-09	6.34e-23
0	0.8804728	0.4494076	0	7.0273113e-19	-5.0129456e-19	0.49087384	0.96	128	1e-09	6.34e-23
0	0.8695259	0.47028524	0	7.0299376e-19	-5.012992e-19	0.5154175	0.96	128	1e-09	6.34e-23
0	0.85831493	0.49049693	0	7.032622e-19	-5.012998e-19	0.5399612	0.96	128	1e-09	6.34e-23
0	0.8455122	0.512307	0	7.035348e-19	-5.0132506e-19	0.5645049	0.96	128	1e-09	6.34e-23
0	0.832969	0.5325118	0	7.038026e-19	-5.013348e-19	0.5890486	0.96	128	1e-09	6.34e-23
0	0.81913495	0.55361176	0	7.0406305e-19	-5.013603e-19	0.6135923	0.96	128	1e-09	6.34e-23
0	0.8044655	0.57477456	0	7.043086e-19	-5.0139026e-19	0.638136	0.96	128	1e-09	6.34e-23
0	0.7889159	0.59598875	0	7.04533e-19	-5.0142314e-19	0.6626797	0.96	128	1e-09	6.34e-23
0	0.7724623	0.6172105	0	7.047294e-19	-5.014561e-19	0.6872234	0.96	128	1e-09	6.34e-23
0	0.7551122	0.6383575	0	7.0489075e-19	-5.014866e-19	0.7117671	0.96	128	1e-09	6.34e-23
0	0.7368887	0.65933794	0	7.0501126e-19	-5.0151076e-19	0.7363108	0.96	128	1e-09	6.34e-23
0	0.7178602	0.68002313	0	7.050861e-19	-5.015253e-19	0.7608545	0.96	128	1e-09	6.34e-23
0	0.6992198	0.6991973	0	7.051115e-19	-5.015347e-19	0.7853982	0.96	128	1e-09	6.34e-23
0	0.988541	2.3515747e-09	0	6.9962326e-19	-5.0012265e-19	0	0.95	128	1e-09	6.324e-23
0	0.98825204	0.023787564	0	6.996306e-19	-5.001212e-19	0.024543693	0.95	128	1e-09	6.324e-23
0	0.9873901	0.047538966	0	6.996518e-19	-5.0011883e-19	0.049087387	0.95	128	1e-09	6.324e-23
0	0.98603946	0.07011823	0	6.996866e-19	-5.0011495e-19	0.07363108	0.95	128	1e-09	6.324e-23
0	0.98412925	0.093123235	0	6.997371e-19	-5.001111e-19	0.09817477	0.95	128	1e-09	6.324e-23
0	0.9816939	0.11597539	0	6.9980317e-19	-5.001058e-19	0.12271846	0.95	128	1e-09	6.324e-23
0	0.9787407	0.13867338	0	6.9988584e-19	-5.0009934e-19	0.14726216	0.95	128	1e-09	6.324e-23
0	0.97527677	0.16121276	0	6.9998624e-19	-5.000916e-19	0.17180584	0.95	128	1e-09	6.324e-23
0	0.9713038	0.18361722	0	7.0010494e-19	-5.000829e-19	0.19634955	0.95	128	1e-09	6.324e-23
0	0.9668206	0.20590822	0	7.002432e-19	-5.0007333e-19	0.22089323	0.95	128	1e-09	6.324e-23
0	0.9618302	0.2280771	0	7.0040117e-19	-5.000632e-19	0.24543692	0.95	128	1e-09	6.324e-23
0	0.9563407	0.25009796	0	7.0058e-19	-5.0005265e-19	0.2699806	0.95	128	1e-09	6.324e-23
0	0.95036703	0.2719239	0	7.0078023e-19	-5.000412e-19	0.2945243	0.95	128	1e-09	6.324e-23
0	0.9438667	0.29370728	0	7.0100093e-19	-5.0003047e-19	0.319068	0.95	128	1e-09	6.324e-23
0	0.93683606	0.31543666	0	7.012427e-19	-5.0002075e-19	0.3436117	0.95	128	1e-09	6.324e-23
0	0.92930657	0.33700186	0	7.015041e-19	-5.0001155e-19	0.3681554	0.95	128	1e-09	6.324e-23
0	0.9212765	0.3584064	0	7.017841e-19	-5.00003e-19	0.3926991	0.95	128	1e-09	6.324e-23
0	0.91269916	0.37975812	0	7.020811e-19	-4.999967e-19	0.41724277	0.95	128	1e-09	6.324e-23
0	0.90354794	0.40109047	0	7.023936e-19	-4.9999356e-19	0.44178647	0.95	128	1e-09	6.324e-23
0	0.8938309	0.4223519	0	7.027183e-19	-4.9999346e-19	0.46633017	0.95	128	1e-09	6.324e-23
0	0.8838437	0.4429236	0	7.0305177e-19	-4.999872e-19	0.49087384	0.95	128	1e-09	6.324e-23
0	0.87241745	0.46508515	0	7.033922e-19	-5.0001016e-19	0.5154175	0.95	128	1e-09	6.324e-23
0	0.86070424	0.48647973	0	7.037332e-19	-5.000267e-19	0.5399612	0.95	128	1e-09	6.324e-23
0	0.8487036	0.5071843	0	7.040695e-19	-5.0003756e-19	0.5645049	0.95	128	1e-09	6.324e-23
0	0.8354735	0.5287553	0	7.043974e-19	-5.000673e-19	0.5890486	0.95	128	1e-09	6.324e-23
0	0.8214146	0.55040145	0	7.0471e-19	-5.001029e-19	0.6135923	0.95	128	1e-09	6.324e-23
0	0.8064755	0.5721237	0	7.050008e-19	-5.001428e-19	0.638136	0.95	128	1e-09	6.324e-23
0	0.79064655	0.5938584	0	7.052626e-19	-5.0018474e-19	0.6626797	0.95	128	1e-09	6.324e-23
0	0.7738843	0.61558807	0	7.054892e-19	-5.0022615e-19	0.6872234	0.95	128	1e-09	6.324e-23
0	0.7561952	0.6372297	0	7.0567373e-19	-5.0026317e-19	0.7117671	0.95	128	1e-09	6.324e-23
0	0.7376524	0.65863305	0	7.0581047e-19	-5.002918e-19	0.7363108	0.95	128	1e-09	6.324e-23
0	0.7182597	0.67974555	0	7.0589495e-19	-5.003092e-19	0.7608545	0.95	128	1e-09	6.324e-23
0	0.699274	0.699264	0	7.059234e-19	-5.0031223e-19	0.7853982	0.95	128	1e-09	6.324e-23
0	0.9883436	1.1927569e-09	0	6.952388e-19	-4.968601e-19	0	0.94	128	1e-09	6.284e-23
0	0.98809934	0.021720557	0	6.9525797e-19	-4.9685565e-19	0.024543693	0.94	128	1e-09	6.284e-23
0	0.9874035	0.04297532	0	6.953152e-19	-4.968498e-19	0.049087387	0.94	128	1e-09	6.284e-23
0	0.9862549	0.06415274	0	6.954113e-19	-4.968391e-19	0.07363108	0.94	128	1e-09	6.284e-23
0	0.9846604	0.08521071	0	6.955456e-19	-4.968237e-19	0.09817477	0.94	128	1e-09	6.284e-23
0	0.98260796	0.10631435	0	6.9571887e-19	-4.968042e-19	0.12271846	0.94	128	1e-09	6.284e-23
0	0.9801171	0.12727089	0	6.9593104e-19	-4.967795e-19	0.14726216	0.94	128	1e-09	6.284e-23
0	0.9771873	0.14812395	0	6.961825e-19	-4.967499e-19	0.17180584	0.94	128	1e-09	6.284e-23
0	0.9738112	0.16893624	0	6.9647294e-19	-4.967163e-19	0.19634955	0.94	128	1e-09	6.284e-23
0	0.96998984	0.18969019	0	6.9680304e-19	-4.9667863e-19	0.22089323	0.94	128	1e-09	6.284e-23
0	0.9657131	0.21042943	0	6.9717207e-19	-4.966381e-19	0.24543692	0.94	128	1e-09	6.284e-23
0	0.96098435	0.23111828	0	6.9757987e-19	-4.965949e-19	0.2699806	0.94	128	1e-09	6.284e-23
0	0.9557939	0.251783	0	6.9802623e-19	-4.965499e-19	0.2945243	0.94	128	1e-09	6.284e-23
0	0.9501447	0.27239224	0	6.9850926e-19	-4.965032e-19	0.319068	0.94	128	1e-09	6.284e-23
0	0.9440042	0.29303858	0	6.9902836e-19	-4.964578e-19	0.3436117	0.94	128	1e-09	6.284e-23
0	0.9373743	0.31367967	0	6.9958175e-19	-4.964135e-19	0.3681554	0.94	128	1e-09	6.284e-23
0	0.9302083	0.33441907	0	7.001675e-19	-4.963741e-19	0.3926991	0.94	128	1e-09	6.284e-23
0	0.92253757	0.35512507	0	7.0078204e-19	-4.9633773e-19	0.41724277	0.94	128	1e-09	6.284e-23
0	0.9143286	0.37585512	0	7.014234e-19	-4.9630635e-19	0.44178647	0.94	128	1e-09	6.284e-23
0	0.90548176	0.39680016	0	7.0208697e-19	-4.9628733e-19	0.46633017	0.94	128	1e-09	6.284e-23
0	0.8963608	0.41710132	0	7.027677e-19	-4.9625496e-19	0.49087384	0.94	128	1e-09	6.284e-23
0	0.8858016	0.43920237	0	7.0346164e-19	-4.9628846e-19	0.5154175	0.94	128	1e-09	6.284e-23
0	0.8748396	0.4607722	0	7.041607e-19	-4.96315e-19	0.5399612	0.94	128	1e-09	6.284e-23
0	0.8630159	0.48268095	0	7.048576e-19	-4.963632e-19	0.5645049	0.94	128	1e-09	6.284e-23
0	0.8501839	0.50507	0	7.055432e-19	-4.96438e-19	0.5890486	0.94	128	1e-09	6.284e-23
0	0.8368878	0.526934	0	7.0620524e-19	-4.965062e-19	0.6135923	0.94	128	1e-09	6.284e-23
0	0.8218292	0.550255	0	7.0683374e-19	-4.9663e-19	0.638136	0.94	128	1e-09	6.284e-23
0	0.8053752	0.5741945	0	7.074126e-19	-4.967765e-19	0.6626797	0.94	128	1e-09	6.284e-23
0	0.78736097	0.59877545	0	7.0792536e-19	-4.969374e-19	0.6872234	0.94	128	1e-09	6.284e-23
0	0.76761156	0.62399524	0	7.083536e-19	-4.9709905e-19	0.7117671	0.94	128	1e-09	6.284e-23
0	0.7460764	0.6496707	0	7.0867825e-19	-4.972395e-19	0.7363108	0.94	128	1e-09	6.284e-23
0	0.7228422	0.67547745	0	7.0888195e-19	-4.9733355e-19	0.7608545	0.94	128	1e-09	6.284e-23
0	0.69958454	0.6995694	0	7.089515e-19	-4.9736664e-19	0.7853982	0.94	128	1e-09	6.284e-23
0	0.98836654	8.380714e-09	0	6.9476306e-19	-4.952902e-19	0	0.93	128	1e-09	6.264e-23
0	0.9881261	0.021557176	0	6.9478363e-19	-4.952857e-19	0.024543693	0.93	128	1e-09	6.264e-23
0	0.9874485	0.042496994	0	6.9484526e-19	-4.952792e-19	0.049087387	0.93	128	1e-09	6.264e-23
0	0.98632616	0.06344991	0	6.949481e-19	-4.9526757e-19	0.07363108	0.93	128	1e-09	6.264e-23
0	0.9847612	0.084365174	0	6.950915e-19	-4.9525113e-19	0.09817477	0.93	128	1e-09	6.264e-23
0	0.98275363	0.10524401	0	6.9527576e-19	-4.952298e-19	0.12271846	0.93	128	1e-09	6.264e-23
0	0.98030007	0.12611222	0	6.955009e-19	-4.95204e-19	0.14726216	0.93	128	1e-09	6.264e-23
0	0.9774131	0.1468693	0	6.957667e-19	-4.9517286e-19	0.17180584	0.93	128	1e-09	6.264e-23
0	0.9740751	0.16763812	0	6.9607207e-19	-4.951382e-19	0.19634955	0.93	128	1e-09	6.264e-23
0	0.9702872	0.18838584	0	6.9641726e-19	-4.9509996e-19	0.22089323	0.93	128	1e-09	6.264e-23
0	0.9660402	0.20913748	0	6.9680144e-19	-4.950592e-19	0.24543692	0.93	128	1e-09	6.264e-23
0	0.9613232	0.229914	0	6.972238e-19	-4.9501704e-19	0.2699806	0.93	128	1e-09	6.264e-23
0	0.9561356	0.25068521	0	6.976833e-19	-4.949736e-19	0.2945243	0.93	128	1e-09	6.264e-23
0	0.95047927	0.27141932	0	6.9817864e-19	-4.949293e-19	0.319068	0.93	128	1e-09	6.264e-23
0	0.9443286	0.29218164	0	6.987079e-19	-4.9488603e-19	0.3436117	0.93	128	1e-09	6.264e-23
0	0.9376274	0.31310666	0	6.992694e-19	-4.948485e-19	0.3681554	0.93	128	1e-09	6.264e-23
0	0.93044037	0.33394969	0	6.9986056e-19	-4.948119e-19	0.3926991	0.93	128	1e-09	6.264e-23
0	0.9227092	0.3548483	0	7.0047846e-19	-4.947803e-19	0.41724277	0.93	128	1e-09	6.264e-23
0	0.9143681	0.37592152	0	7.0111994e-19	-4.947588e-19	0.44178647	0.93	128	1e-09	6.264e-23
0	0.9054573	0.39700985	0	7.017808e-19	-4.94744e-19	0.46633017	0.93	128	1e-09	6.264e-23
0	0.89586043	0.41832575	0	7.024558e-19	-4.947436e-19	0.49087384	0.93	128	1e-09	6.264e-23
0	0.8859273	0.4390808	0	7.031392e-19	-4.947338e-19	0.5154175	0.93	128	1e-09	6.264e-23
0	0.87484777	0.46087942	0	7.038255e-19	-4.9476655e-19	0.5399612	0.93	128	1e-09	6.264e-23
0	0.86241835	0.48386544	0	7.045073e-19	-4.948481e-19	0.5645049	0.93	128	1e-09	6.264e-23
0	0.84945416	0.506403	0	7.05174e-19	-4.9492506e-19	0.5890486	0.93	128	1e-09	6.264e-23
0	0.8360219	0.52840215	0	7.0581445e-19	-4.94995e-19	0.6135923	0.93	128	1e-09	6.264e-23
0	0.82082146	0.55184096	0	7.06419e-19	-4.951171e-19	0.638136	0.93	128	1e-09	6.264e-23
0	0.8042737	0.57580733	0	7.069726e-19	-4.9525743e-19	0.6626797	0.93	128	1e-09	6.264e-23
0	0.7862293	0.6003186	0	7.074595e-19	-4.9540803e-19	0.6872234	0.93	128	1e-09	6.264e-23
0	0.7665691	0.62532085	0	7.0786374e-19	-4.955552e-19	0.7117671	0.93	128	1e-09	6.264e-23
0	0.74525464	0.6506477	0	7.081683e-19	-4.9568064e-19	0.7363108	0.93	128	1e-09	6.264e-23
0	0.7223895	0.67598826	0	7.083587e-19	-4.9576295e-19	0.7608545	0.93	128	1e-09	6.264e-23
0	0.6995983	0.69957966	0	7.0842353e-19	-4.957922e-19	0.7853982	0.93	128	1e-09	6.264e-23
0	0.9882088	7.654018e-09	0	6.90944e-19	-4.9220695e-19	0	0.92	128	1e-09	6.226e-23
0	0.9879992	0.02009669	0	6.909732e-19	-4.922e-19	0.024543693	0.92	128	1e-09	6.226e-23
0	0.98740965	0.039650097	0	6.9105967e-19	-4.921856e-19	0.049087387	0.92	128	1e-09	6.226e-23
0	0.98643076	0.059247404	0	6.9120417e-19	-4.9216114e-19	0.07363108	0.92	128	1e-09	6.226e-23
0	0.98506254	0.07884306	0	6.9140626e-19	-4.9212656e-19	0.09817477	0.92	128	1e-09	6.226e-23
0	0.98331815	0.09829413	0	6.916657e-19	-4.920808e-19	0.12271846	0.92	128	1e-09	6.226e-23
0	0.98119324	0.11769013	0	6.919833e-19	-4.9202435e-19	0.14726216	0.92	128	1e-09	6.226e-23
0	0.97867453	0.13713464	0	6.92358e-19	-4.9195916e-19	0.17180584	0.92	128	1e-09	6.226e-23
0	0.9757757	0.156507	0	6.9278977e-19	-4.918836e-19	0.19634955	0.92	128	1e-09	6.226e-23
0	0.97248954	0.17585348	0	6.93279e-19	-4.9179894e-19	0.22089323	0.92	128	1e-09	6.226e-23
0	0.9688069	0.19520731	0	6.938242e-19	-4.9170687e-19	0.24543692	0.92	128	1e-09	6.226e-23
0	0.96472794	0.2145495	0	6.944255e-19	-4.916073e-19	0.2699806	0.92	128	1e-09	6.226e-23
0	0.96023023	0.23395422	0	6.9508137e-19	-4.9150364e-19	0.2945243	0.92	128	1e-09	6.226e-23
0	0.95533377	0.25331083	0	6.9579145e-19	-4.913934e-19	0.319068	0.92	128	1e-09	6.226e-23
0	0.9500123	0.27270046	0	6.965538e-19	-4.912805e-19	0.3436117	0.92	128	1e-09	6.226e-23
0	0.9442478	0.29215398	0	6.9736656e-19	-4.911672e-19	0.3681554	0.92	128	1e-09	6.226e-23
0	0.9379574	0.31188646	0	6.9822796e-19	-4.910638e-19	0.3926991	0.92	128	1e-09	6.226e-23
0	0.93128353	0.3314157	0	6.991348e-19	-4.9095336e-19	0.41724277	0.92	128	1e-09	6.226e-23
0	0.9240659	0.35117987	0	7.0008405e-19	-4.908551e-19	0.44178647	0.92	128	1e-09	6.226e-23
0	0.91632557	0.37105808	0	7.0107197e-19	-4.907663e-19	0.46633017	0.92	128	1e-09	6.226e-23
0	0.9079975	0.39115497	0	7.0209333e-19	-4.9069414e-19	0.49087384	0.92	128	1e-09	6.226e-23
0	0.89897007	0.41164863	0	7.031427e-19	-4.9065025e-19	0.5154175	0.92	128	1e-09	6.226e-23
0	0.88924986	0.43242508	0	7.042128e-19	-4.906317e-19	0.5399612	0.92	128	1e-09	6.226e-23
0	0.87862504	0.45381498	0	7.0529555e-19	-4.906583e-19	0.5645049	0.92	128	1e-09	6.226e-23
0	0.8671025	0.47566128	0	7.0637947e-19	-4.907247e-19	0.5890486	0.92	128	1e-09	6.226e-23
0	0.85434467	0.4984246	0	7.0745273e-19	-4.908559e-19	0.6135923	0.92	128	1e-09	6.226e-23
0	0.84082174	0.52112496	0	7.0849684e-19	-4.9100123e-19	0.638136	0.92	128	1e-09	6.226e-23
0	0.8250173	0.5460304	0	7.0949313e-19	-4.912736e-19	0.6626797	0.92	128	1e-09	6.226e-23
0	0.8069843	0.57257926	0	7.104132e-19	-4.916287e-19	0.6872234	0.92	128	1e-09	6.226e-23
0	0.7860238	0.60125947	0	7.112209e-19	-4.9205857e-19	0.7117671	0.92	128	1e-09	6.226e-23
0	0.7612141	0.6325833	0	7.1186905e-19	-4.925211e-19	0.7363108	0.92	128	1e-09	6.226e-23
0	0.7317489	0.6665985	0	7.122986e-19	-4.929068e-19	0.7608545	0.92	128	1e-09	6.226e-23
0	0.69997746	0.6999556	0	7.1245076e-19	-4.9305046e-19	0.7853982	0.92	128	1e-09	6.226e-23
0	0.9881846	-6.4266353e-10	0	6.902696e-19	-4.912464e-19	0	0.91	128	1e-09	6.214e-23
0	0.987985	0.01961956	0	6.9030125e-19	-4.9123853e-19	0.024543693	0.91	128	1e-09	6.214e-23
0	0.9874197	0.038820747	0	6.903954e-19	-4.912217e-19	0.049087387	0.91	128	1e-09	6.214e-23
0	0.9864806	0.05804781	0	6.9055255e-19	-4.911933e-19	0.07363108	0.91	128	1e-09	6.214e-23
0	0.9851815	0.07709333	0	6.9077217e-19	-4.911516e-19	0.09817477	0.91	128	1e-09	6.214e-23
0	0.98350877	0.09619134	0	6.910541e-19	-4.9109847e-19	0.12271846	0.91	128	1e-09	6.214e-23
0	0.9814608	0.115314946	0	6.913984e-19	-4.910343e-19	0.14726216	0.91	128	1e-09	6.214e-23
0	0.9790481	0.13435957	0	6.918042e-19	-4.90958e-19	0.17180584	0.91	128	1e-09	6.214e-23
0	0.9762593	0.15341225	0	6.92271e-19	-4.9087115e-19	0.19634955	0.91	128	1e-09	6.214e-23
0	0.9730855	0.17250194	0	6.9279814e-19	-4.907753e-19	0.22089323	0.91	128	1e-09	6.214e-23
0	0.9695234	0.1916185	0	6.933852e-19	-4.90671e-19	0.24543692	0.91	128	1e-09	6.214e-23
0	0.96556807	0.21075693	0	6.9403075e-19	-4.905595e-19	0.2699806	0.91	128	1e-09	6.214e-23
0	0.9611979	0.2299836	0	6.947336e-19	-4.9044366e-19	0.2945243	0.91	128	1e-09	6.214e-23
0	0.95641726	0.24924165	0	6.9549217e-19	-4.9032315e-19	0.319068	0.91	128	1e-09	6.214e-23
0	0.95119804	0.2686018	0	6.963045e-19	-4.9020207e-19	0.3436117	0.91	128	1e-09	6.214e-23
0	0.94555646	0.28796753	0	6.971684e-19	-4.900785e-19	0.3681554	0.91	128	1e-09	6.214e-23
0	0.93937516	0.30767637	0	6.9808155e-19	-4.899675e-19	0.3926991	0.91	128	1e-09	6.214e-23
0	0.9327709	0.32730165	0	6.9904e-19	-4.898543e-19	0.41724277	0.91	128	1e-09	6.214e-23
0	0.9256483	0.34708935	0	7.000406e-19	-4.8975074e-19	0.44178647	0.91	128	1e-09	6.214e-23
0	0.9179265	0.36718836	0	7.0107884e-19	-4.8966626e-19	0.46633017	0.91	128	1e-09	6.214e-23
0	0.90962404	0.38747022	0	7.0214906e-19	-4.895982e-19	0.49087384	0.91	128	1e-09	6.214e-23
0	0.9009618	0.40737933	0	7.032443e-19	-4.895199e-19	0.5154175	0.91	128	1e-09	6.214e-23
0	0.8908618	0.42921305	0	7.04359e-19	-4.895525e-19	0.5399612	0.91	128	1e-09	6.214e-23
0	0.88024205	0.45078912	0	7.054825e-19	-4.895871e-19	0.5645049	0.91	128	1e-09	6.214e-23
0	0.8685686	0.47309873	0	7.066039e-19	-4.89677e-19	0.5890486	0.91	128	1e-09	6.214e-23
0	0.85623074	0.49528575	0	7.077086e-19	-4.897779e-19	0.6135923	0.91	128	1e-09	6.214e-23
0	0.84200025	0.51933354	0	7.0878067e-19	-4.899951e-19	0.638136	0.91	128	1e-09	6.214e-23
0	0.8259752	0.54469025	0	7.097984e-19	-4.902922e-19	0.6626797	0.91	128	1e-09	6.214e-23
0	0.80765134	0.5717408	0	7.1073333e-19	-4.9067304e-19	0.6872234	0.91	128	1e-09	6.214e-23
0	0.7863676	0.6009034	0	7.1154934e-19	-4.911239e-19	0.7117671	0.91	128	1e-09	6.214e-23
0	0.7612736	0.6325931	0	7.1219946e-19	-4.915971e-19	0.7363108	0.91	128	1e-09	6.214e-23
0	0.7317038	0.6667172	0	7.1262763e-19	-4.919812e-19	0.7608545	0.91	128	1e-09	6.214e-23
0	0.70000875	0.6999865	0	7.127784e-19	-4.921219e-19	0.7853982	0.91	128	1e-09	6.214e-23
0	0.9882456	8.373768e-09	0	6.9008706e-19	-4.887468e-19	0	0.9	128	1e-09	6.182e-23
0	0.9880578	0.019041428	0	6.9012195e-19	-4.8873775e-19	0.024543693	0.9	128	1e-09	6.182e-23
0	0.987529	0.037608698	0	6.902265e-19	-4.887167e-19	0.049087387	0.9	128	1e-09	6.182e-23
0	0.98665214	0.056191716	0	6.9040035e-19	-4.8868083e-19	0.07363108	0.9	128	1e-09	6.182e-23
0	0.9854268	0.074771464	0	6.9064344e-19	-4.886305e-19	0.09817477	0.9	128	1e-09	6.182e-23
0	0.98385036	0.09336354	0	6.909551e-19	-4.885659e-19	0.12271846	0.9	128	1e-09	6.182e-23
0	0.98192346	0.11194387	0	6.913349e-19	-4.8848743e-19	0.14726216	0.9	128	1e-09	6.182e-23
0	0.97963846	0.1305603	0	6.9178247e-19	-4.883962e-19	0.17180584	0.9	128	1e-09	6.182e-23
0	0.97699594	0.14917909	0	6.9229656e-19	-4.8829226e-19	0.19634955	0.9	128	1e-09	6.182e-23
0	0.9739862	0.1678411	0	6.928761e-19	-4.881776e-19	0.22089323	0.9	128	1e-09	6.182e-23
0	0.9705986	0.18657087	0	6.9352027e-19	-4.880535e-19	0.24543692	0.9	128	1e-09	6.182e-23