# t (s)	mx ()	my ()	mz ()	E_total (J)	E_Zeeman (J)	island1_magAngle (rad)	island2_magAngle (rad)	roundness ()	size (m)	islands_distance (m)	island1_angle (rad)	island2_angle (rad)	Cell_size (m)
0	0.99981946	7.4407744e-08	0	-3.5267317e-18	-5.195862e-18	0	0	0.66	1e-07	1.28e-07	0.7853982	0.7853982	1e-09
0	0.9964081	0.055638906	0	-3.5287777e-18	-5.1945487e-18	0	0.09817477	0.66	1e-07	1.28e-07	0.7853982	0.7853982	1e-09
0	0.9870079	0.10764686	0	-3.534075e-18	-5.1916866e-18	0	0.19634955	0.66	1e-07	1.28e-07	0.7853982	0.7853982	1e-09
0	0.97308314	0.15494715	0	-3.54085e-18	-5.1888515e-18	0	0.2945243	0.66	1e-07	1.28e-07	0.7853982	0.7853982	1e-09
0	0.9556733	0.19800243	0	-3.547402e-18	-5.186696e-18	0	0.3926991	0.66	1e-07	1.28e-07	0.7853982	0.7853982	1e-09
0	0.9352779	0.23751685	0	-3.5524764e-18	-5.185185e-18	0	0.49087384	0.66	1e-07	1.28e-07	0.7853982	0.7853982	1e-09
0	0.9121907	0.27402812	0	-3.5552223e-18	-5.1841084e-18	0	0.5890486	0.66	1e-07	1.28e-07	0.7853982	0.7853982	1e-09
0	0.8865147	0.30781522	0	-3.5551123e-18	-5.1832382e-18	0	0.6872234	0.66	1e-07	1.28e-07	0.7853982	0.7853982	1e-09
0	0.8583022	0.33914554	0	-3.5518577e-18	-5.1824466e-18	0	0.7853982	0.66	1e-07	1.28e-07	0.7853982	0.7853982	1e-09
0	0.82755506	0.36798653	0	-3.5453627e-18	-5.181696e-18	0	0.88357294	0.66	1e-07	1.28e-07	0.7853982	0.7853982	1e-09
0	0.7941866	0.3944288	0	-3.5357136e-18	-5.181085e-18	0	0.9817477	0.66	1e-07	1.28e-07	0.7853982	0.7853982	1e-09
0	0.75801456	0.41843662	0	-3.5231827e-18	-5.1808373e-18	0	1.0799224	0.66	1e-07	1.28e-07	0.7853982	0.7853982	1e-09
0	0.7187664	0.4398752	0	-3.508277e-18	-5.18127e-18	0	1.1780972	0.66	1e-07	1.28e-07	0.7853982	0.7853982	1e-09
0	0.67581946	0.45853558	0	-3.4918156e-18	-5.182833e-18	0	1.276272	0.66	1e-07	1.28e-07	0.7853982	0.7853982	1e-09
0	0.62842065	0.4740175	0	-3.475049e-18	-5.185831e-18	0	1.3744467	0.66	1e-07	1.28e-07	0.7853982	0.7853982	1e-09
0	0.5756166	0.48534426	0	-3.4597727e-18	-5.190024e-18	0	1.4726216	0.66	1e-07	1.28e-07	0.7853982	0.7853982	1e-09
0	0.51769495	0.49096194	0	-3.4481613e-18	-5.1937087e-18	0	1.5707964	0.66	1e-07	1.28e-07	0.7853982	0.7853982	1e-09
0	0.45806393	0.48940906	0	-3.441781e-18	-5.1944643e-18	0	1.6689711	0.66	1e-07	1.28e-07	0.7853982	0.7853982	1e-09
0	0.40173888	0.4810589	0	-3.4402758e-18	-5.1923e-18	0	1.7671459	0.66	1e-07	1.28e-07	0.7853982	0.7853982	1e-09
0	0.35078168	0.4676015	0	-3.4417732e-18	-5.18924e-18	0	1.8653207	0.66	1e-07	1.28e-07	0.7853982	0.7853982	1e-09
0	0.30472338	0.4503376	0	-3.4442856e-18	-5.1865585e-18	0	1.9634954	0.66	1e-07	1.28e-07	0.7853982	0.7853982	1e-09
0	0.26271033	0.42992362	0	-3.4463254e-18	-5.184559e-18	0	2.06167	0.66	1e-07	1.28e-07	0.7853982	0.7853982	1e-09
0	0.2240568	0.40661767	0	-3.446908e-18	-5.183134e-18	0	2.1598449	0.66	1e-07	1.28e-07	0.7853982	0.7853982	1e-09
0	0.18835922	0.3807052	0	-3.4454281e-18	-5.1821277e-18	0	2.2580197	0.66	1e-07	1.28e-07	0.7853982	0.7853982	1e-09
0	0.15538453	0.35209686	0	-3.4415623e-18	-5.1814097e-18	0	2.3561945	0.66	1e-07	1.28e-07	0.7853982	0.7853982	1e-09
0	0.12505311	0.32079348	0	-3.435207e-18	-5.18096e-18	0	2.4543693	0.66	1e-07	1.28e-07	0.7853982	0.7853982	1e-09
0	0.09733839	0.28676525	0	-3.4264553e-18	-5.180877e-18	0	2.552544	0.66	1e-07	1.28e-07	0.7853982	0.7853982	1e-09
0	0.07227701	0.24978726	0	-3.4156132e-18	-5.1813746e-18	0	2.6507187	0.66	1e-07	1.28e-07	0.7853982	0.7853982	1e-09
0	0.04996858	0.20947962	0	-3.4032574e-18	-5.1827853e-18	0	2.7488935	0.66	1e-07	1.28e-07	0.7853982	0.7853982	1e-09
0	0.030700548	0.16517097	0	-3.3903335e-18	-5.1854244e-18	0	2.8470683	0.66	1e-07	1.28e-07	0.7853982	0.7853982	1e-09
0	0.014998499	0.1158722	0	-3.3783216e-18	-5.18942e-18	0	2.9452431	0.66	1e-07	1.28e-07	0.7853982	0.7853982	1e-09
0	0.004079485	0.06051857	0	-3.3693689e-18	-5.193871e-18	0	3.043418	0.66	1e-07	1.28e-07	0.7853982	0.7853982	1e-09
0	-8.7380994e-07	3.7552659e-06	0	-3.365961e-18	-5.1960558e-18	0	3.1415927	0.66	1e-07	1.28e-07	0.7853982	0.7853982	1e-09
0	0.0040773395	-0.06050518	0	-3.3693662e-18	-5.1938753e-18	0	3.2397673	0.66	1e-07	1.28e-07	0.7853982	0.7853982	1e-09
0	0.014998873	-0.11586168	0	-3.3783169e-18	-5.1894206e-18	0	3.3379421	0.66	1e-07	1.28e-07	0.7853982	0.7853982	1e-09
0	0.030697709	-0.16517359	0	-3.3903286e-18	-5.1854273e-18	0	3.436117	0.66	1e-07	1.28e-07	0.7853982	0.7853982	1e-09
0	0.04998805	-0.20948434	0	-3.4032535e-18	-5.182766e-18	0	3.5342917	0.66	1e-07	1.28e-07	0.7853982	0.7853982	1e-09
0	0.072262615	-0.24980073	0	-3.4156128e-18	-5.181382e-18	0	3.6324666	0.66	1e-07	1.28e-07	0.7853982	0.7853982	1e-09
0	0.09733448	-0.2867567	0	-3.4264563e-18	-5.1808725e-18	0	3.7306414	0.66	1e-07	1.28e-07	0.7853982	0.7853982	1e-09
0	0.12505466	-0.32080325	0	-3.4352114e-18	-5.1809535e-18	0	3.828816	0.66	1e-07	1.28e-07	0.7853982	0.7853982	1e-09
0	0.1553977	-0.35203442	0	-3.44157e-18	-5.1813928e-18	0	3.9269907	0.66	1e-07	1.28e-07	0.7853982	0.7853982	1e-09
0	0.18836373	-0.38067207	0	-3.4454389e-18	-5.1821132e-18	0	4.0251656	0.66	1e-07	1.28e-07	0.7853982	0.7853982	1e-09
0	0.22405939	-0.4066099	0	-3.4469208e-18	-5.1831203e-18	0	4.12334	0.66	1e-07	1.28e-07	0.7853982	0.7853982	1e-09
0	0.26271066	-0.42991665	0	-3.4463421e-18	-5.1845435e-18	0	4.221515	0.66	1e-07	1.28e-07	0.7853982	0.7853982	1e-09
0	0.30472392	-0.45033413	0	-3.4443046e-18	-5.1865416e-18	0	4.3196898	0.66	1e-07	1.28e-07	0.7853982	0.7853982	1e-09
0	0.35077628	-0.46758544	0	-3.441794e-18	-5.189219e-18	0	4.417865	0.66	1e-07	1.28e-07	0.7853982	0.7853982	1e-09
0	0.401754	-0.48104772	0	-3.4402996e-18	-5.1922818e-18	0	4.5160394	0.66	1e-07	1.28e-07	0.7853982	0.7853982	1e-09
0	0.45806298	-0.48940548	0	-3.4418046e-18	-5.1944453e-18	0	4.6142144	0.66	1e-07	1.28e-07	0.7853982	0.7853982	1e-09
0	0.51767576	-0.49097	0	-3.4481845e-18	-5.1936946e-18	0	4.712389	0.66	1e-07	1.28e-07	0.7853982	0.7853982	1e-09
0	0.5756179	-0.48533908	0	-3.4597956e-18	-5.1900037e-18	0	4.8105636	0.66	1e-07	1.28e-07	0.7853982	0.7853982	1e-09
0	0.6283947	-0.47400224	0	-3.475071e-18	-5.185821e-18	0	4.9087386	0.66	1e-07	1.28e-07	0.7853982	0.7853982	1e-09
0	0.67582387	-0.45854458	0	-3.4918354e-18	-5.1828143e-18	0	5.006913	0.66	1e-07	1.28e-07	0.7853982	0.7853982	1e-09
0	0.7187711	-0.43984023	0	-3.508294e-18	-5.1812497e-18	0	5.105088	0.66	1e-07	1.28e-07	0.7853982	0.7853982	1e-09
0	0.7580258	-0.41841254	0	-3.5231963e-18	-5.1808183e-18	0	5.203263	0.66	1e-07	1.28e-07	0.7853982	0.7853982	1e-09
0	0.7941983	-0.39446646	0	-3.5357244e-18	-5.1810747e-18	0	5.3014374	0.66	1e-07	1.28e-07	0.7853982	0.7853982	1e-09
0	0.8275518	-0.3679909	0	-3.5453706e-18	-5.181688e-18	0	5.3996124	0.66	1e-07	1.28e-07	0.7853982	0.7853982	1e-09
0	0.8582974	-0.3391494	0	-3.5518623e-18	-5.182441e-18	0	5.497787	0.66	1e-07	1.28e-07	0.7853982	0.7853982	1e-09
0	0.88651055	-0.30785286	0	-3.5551147e-18	-5.183237e-18	0	5.595962	0.66	1e-07	1.28e-07	0.7853982	0.7853982	1e-09
0	0.9121892	-0.27405998	0	-3.5552227e-18	-5.184108e-18	0	5.6941366	0.66	1e-07	1.28e-07	0.7853982	0.7853982	1e-09
0	0.9352746	-0.23752905	0	-3.552474e-18	-5.185184e-18	0	5.7923117	0.66	1e-07	1.28e-07	0.7853982	0.7853982	1e-09
0	0.95567477	-0.19800876	0	-3.547399e-18	-5.1866987e-18	0	5.8904862	0.66	1e-07	1.28e-07	0.7853982	0.7853982	1e-09
0	0.97308964	-0.15494439	0	-3.5408446e-18	-5.1888585e-18	0	5.988661	0.66	1e-07	1.28e-07	0.7853982	0.7853982	1e-09
0	0.9870091	-0.107647546	0	-3.5340713e-18	-5.1916916e-18	0	6.086836	0.66	1e-07	1.28e-07	0.7853982	0.7853982	1e-09
0	0.9964093	-0.05563948	0	-3.528775e-18	-5.194553e-18	0	6.1850104	0.66	1e-07	1.28e-07	0.7853982	0.7853982	1e-09
0	0.9998194	1.3202659e-07	0	-3.5267313e-18	-5.195861e-18	0	6.2831855	0.66	1e-07	1.28e-07	0.7853982	0.7853982	1e-09
0	0.99641013	0.05563684	0	-3.528775e-18	-5.1945553e-18	0.09817477	0	0.66	1e-07	1.28e-07	0.7853982	0.7853982	1e-09
0	0.9932222	0.1113884	0	-3.5303308e-18	-5.193461e-18	0.09817477	0.09817477	0.66	1e-07	1.28e-07	0.7853982	0.7853982	1e-09
0	0.98400474	0.16356911	0	-3.5351784e-18	-5.190751e-18	0.09817477	0.19634955	0.66	1e-07	1.28e-07	0.7853982	0.7853982	1e-09
0	0.9702197	0.21106027	0	-3.541552e-18	-5.188002e-18	0.09817477	0.2945243	0.66	1e-07	1.28e-07	0.7853982	0.7853982	1e-09
0	0.952912	0.25428826	0	-3.5477487e-18	-5.1858955e-18	0.09817477	0.3926991	0.66	1e-07	1.28e-07	0.7853982	0.7853982	1e-09
0	0.9326137	0.29398614	0	-3.5525037e-18	-5.184425e-18	0.09817477	0.49087384	0.66	1e-07	1.28e-07	0.7853982	0.7853982	1e-09
0	0.9096013	0.3306683	0	-3.5549613e-18	-5.1833755e-18	0.09817477	0.5890486	0.66	1e-07	1.28e-07	0.7853982	0.7853982	1e-09
0	0.88398474	0.36471686	0	-3.554589e-18	-5.1825297e-18	0.09817477	0.6872234	0.66	1e-07	1.28e-07	0.7853982	0.7853982	1e-09
0	0.8558248	0.39619595	0	-3.5510963e-18	-5.181765e-18	0.09817477	0.7853982	0.66	1e-07	1.28e-07	0.7853982	0.7853982	1e-09
0	0.8251077	0.42529538	0	-3.5443895e-18	-5.1810458e-18	0.09817477	0.88357294	0.66	1e-07	1.28e-07	0.7853982	0.7853982	1e-09
0	0.79176366	0.45197695	0	-3.53455e-18	-5.1804696e-18	0.09817477	0.9817477	0.66	1e-07	1.28e-07	0.7853982	0.7853982	1e-09
0	0.7555911	0.47623214	0	-3.521854e-18	-5.1802633e-18	0.09817477	1.0799224	0.66	1e-07	1.28e-07	0.7853982	0.7853982	1e-09
0	0.71635413	0.4979304	0	-3.506808e-18	-5.1807306e-18	0.09817477	1.1780972	0.66	1e-07	1.28e-07	0.7853982	0.7853982	1e-09
0	0.6733747	0.5169168	0	-3.490234e-18	-5.1823486e-18	0.09817477	1.276272	0.66	1e-07	1.28e-07	0.7853982	0.7853982	1e-09
0	0.62590635	0.53269416	0	-3.4733864e-18	-5.185412e-18	0.09817477	1.3744467	0.66	1e-07	1.28e-07	0.7853982	0.7853982	1e-09
0	0.57302165	0.54435724	0	-3.458067e-18	-5.1896604e-18	0.09817477	1.4726216	0.66	1e-07	1.28e-07	0.7853982	0.7853982	1e-09
0	0.51496595	0.55028975	0	-3.4464637e-18	-5.193377e-18	0.09817477	1.5707964	0.66	1e-07	1.28e-07	0.7853982	0.7853982	1e-09
0	0.45521083	0.54895824	0	-3.4401484e-18	-5.1941103e-18	0.09817477	1.6689711	0.66	1e-07	1.28e-07	0.7853982	0.7853982	1e-09
0	0.39881375	0.5408213	0	-3.4387567e-18	-5.1918984e-18	0.09817477	1.7671459	0.66	1e-07	1.28e-07	0.7853982	0.7853982	1e-09
0	0.34772453	0.5275325	0	-3.4404042e-18	-5.1887803e-18	0.09817477	1.8653207	0.66	1e-07	1.28e-07	0.7853982	0.7853982	1e-09
0	0.3015722	0.5104102	0	-3.4430975e-18	-5.1860444e-18	0.09817477	1.9634954	0.66	1e-07	1.28e-07	0.7853982	0.7853982	1e-09
0	0.25947008	0.49012148	0	-3.4453466e-18	-5.1839934e-18	0.09817477	2.06167	0.66	1e-07	1.28e-07	0.7853982	0.7853982	1e-09
0	0.22072442	0.466979	0	-3.446165e-18	-5.182522e-18	0.09817477	2.1598449	0.66	1e-07	1.28e-07	0.7853982	0.7853982	1e-09
0	0.18493192	0.44113433	0	-3.4449477e-18	-5.1814556e-18	0.09817477	2.2580197	0.66	1e-07	1.28e-07	0.7853982	0.7853982	1e-09
0	0.1518683	0.41259947	0	-3.4413702e-18	-5.1806793e-18	0.09817477	2.3561945	0.66	1e-07	1.28e-07	0.7853982	0.7853982	1e-09
0	0.12144299	0.38138956	0	-3.4353297e-18	-5.1801698e-18	0.09817477	2.4543693	0.66	1e-07	1.28e-07	0.7853982	0.7853982	1e-09
0	0.0936356	0.3474947	0	-3.4269218e-18	-5.1800072e-18	0.09817477	2.552544	0.66	1e-07	1.28e-07	0.7853982	0.7853982	1e-09
0	0.068493396	0.31053993	0	-3.4164547e-18	-5.180424e-18	0.09817477	2.6507187	0.66	1e-07	1.28e-07	0.7853982	0.7853982	1e-09
0	0.046109445	0.27027515	0	-3.4045075e-18	-5.1817166e-18	0.09817477	2.7488935	0.66	1e-07	1.28e-07	0.7853982	0.7853982	1e-09
0	0.026749007	0.22597624	0	-3.3920373e-18	-5.1842226e-18	0.09817477	2.8470683	0.66	1e-07	1.28e-07	0.7853982	0.7853982	1e-09
0	0.010965243	0.17659716	0	-3.3805323e-18	-5.1880197e-18	0.09817477	2.9452431	0.66	1e-07	1.28e-07	0.7853982	0.7853982	1e-09
0	-1.4540927e-06	0.12112438	0	-3.3721536e-18	-5.1921486e-18	0.09817477	3.043418	0.66	1e-07	1.28e-07	0.7853982	0.7853982	1e-09
0	-0.0040817168	0.06052096	0	-3.3693697e-18	-5.1938695e-18	0.09817477	3.1415927	0.66	1e-07	1.28e-07	0.7853982	0.7853982	1e-09
0	-3.5001947e-06	6.10214e-06	0	-3.3733794e-18	-5.1912594e-18	0.09817477	3.2397673	0.66	1e-07	1.28e-07	0.7853982	0.7853982	1e-09
0	0.010885139	-0.055339277	0	-3.3828591e-18	-5.1865548e-18	0.09817477	3.3379421	0.66	1e-07	1.28e-07	0.7853982	0.7853982	1e-09
0	0.02654146	-0.10469038	0	-3.395318e-18	-5.1824334e-18	0.09817477	3.436117	0.66	1e-07	1.28e-07	0.7853982	0.7853982	1e-09
0	0.045762442	-0.14905755	0	-3.4086242e-18	-5.1797277e-18	0.09817477	3.5342917	0.66	1e-07	1.28e-07	0.7853982	0.7853982	1e-09
0	0.06799322	-0.18944238	0	-3.421313e-18	-5.1783057e-18	0.09817477	3.6324666	0.66	1e-07	1.28e-07	0.7853982	0.7853982	1e-09
0	0.09299574	-0.22647657	0	-3.4324449e-18	-5.1777805e-18	0.09817477	3.7306414	0.66	1e-07	1.28e-07	0.7853982	0.7853982	1e-09
0	0.12065265	-0.26060987	0	-3.4414514e-18	-5.177861e-18	0.09817477	3.828816	0.66	1e-07	1.28e-07	0.7853982	0.7853982	1e-09
0	0.15093173	-0.29203704	0	-3.4480273e-18	-5.17832e-18	0.09817477	3.9269907	0.66	1e-07	1.28e-07	0.7853982	0.7853982	1e-09
0	0.18383943	-0.3207811	0	-3.4520807e-18	-5.179047e-18	0.09817477	4.0251656	0.66	1e-07	1.28e-07	0.7853982	0.7853982	1e-09
0	0.21947572	-0.34688905	0	-3.4537169e-18	-5.180072e-18	0.09817477	4.12334	0.66	1e-07	1.28e-07	0.7853982	0.7853982	1e-09
0	0.2580621	-0.37031683	0	-3.4532584e-18	-5.1815102e-18	0.09817477	4.221515	0.66	1e-07	1.28e-07	0.7853982	0.7853982	1e-09
0	0.30001315	-0.39093095	0	-3.4513094e-18	-5.183534e-18	0.09817477	4.3196898	0.66	1e-07	1.28e-07	0.7853982	0.7853982	1e-09
0	0.34601435	-0.40843225	0	-3.4488524e-18	-5.186249e-18	0.09817477	4.417865	0.66	1e-07	1.28e-07	0.7853982	0.7853982	1e-09
0	0.39694571	-0.42216218	0	-3.4473705e-18	-5.189362e-18	0.09817477	4.5160394	0.66	1e-07	1.28e-07	0.7853982	0.7853982	1e-09
0	0.45319006	-0.43077806	0	-3.4488427e-18	-5.1915927e-18	0.09817477	4.6142144	0.66	1e-07	1.28e-07	0.7853982	0.7853982	1e-09
0	0.51273596	-0.43262738	0	-3.4551363e-18	-5.190951e-18	0.09817477	4.712389	0.66	1e-07	1.28e-07	0.7853982	0.7853982	1e-09
0	0.57064843	-0.42729545	0	-3.4666108e-18	-5.1874e-18	0.09817477	4.8105636	0.66	1e-07	1.28e-07	0.7853982	0.7853982	1e-09
0	0.62346494	-0.41622955	0	-3.481714e-18	-5.1833416e-18	0.09817477	4.9087386	0.66	1e-07	1.28e-07	0.7853982	0.7853982	1e-09
0	0.6709243	-0.40101418	0	-3.49828e-18	-5.1804485e-18	0.09817477	5.006913	0.66	1e-07	1.28e-07	0.7853982	0.7853982	1e-09
0	0.7139149	-0.3825666	0	-3.5145217e-18	-5.178982e-18	0.09817477	5.105088	0.66	1e-07	1.28e-07	0.7853982	0.7853982	1e-09
0	0.7532504	-0.36134493	0	-3.5291884e-18	-5.178621e-18	0.09817477	5.203263	0.66	1e-07	1.28e-07	0.7853982	0.7853982	1e-09
0	0.78947073	-0.3375587	0	-3.5414634e-18	-5.1789464e-18	0.09817477	5.3014374	0.66	1e-07	1.28e-07	0.7853982	0.7853982	1e-09
0	0.82291025	-0.31128824	0	-3.5508395e-18	-5.1796135e-18	0.09817477	5.3996124	0.66	1e-07	1.28e-07	0.7853982	0.7853982	1e-09
0	0.85373795	-0.2825337	0	-3.5570446e-18	-5.180401e-18	0.09817477	5.497787	0.66	1e-07	1.28e-07	0.7853982	0.7853982	1e-09
0	0.8820403	-0.251461	0	-3.5599926e-18	-5.181253e-18	0.09817477	5.595962	0.66	1e-07	1.28e-07	0.7853982	0.7853982	1e-09
0	0.9078072	-0.21780187	0	-3.5597776e-18	-5.182161e-18	0.09817477	5.6941366	0.66	1e-07	1.28e-07	0.7853982	0.7853982	1e-09
0	0.9310092	-0.18146874	0	-3.5566843e-18	-5.183282e-18	0.09817477	5.7923117	0.66	1e-07	1.28e-07	0.7853982	0.7853982	1e-09
0	0.95150405	-0.14211483	0	-3.551242e-18	-5.1848285e-18	0.09817477	5.8904862	0.66	1e-07	1.28e-07	0.7853982	0.7853982	1e-09
0	0.9690711	-0.09916262	0	-3.544291e-18	-5.1870544e-18	0.09817477	5.988661	0.66	1e-07	1.28e-07	0.7853982	0.7853982	1e-09
0	0.9831695	-0.051941752	0	-3.537084e-18	-5.189998e-18	0.09817477	6.086836	0.66	1e-07	1.28e-07	0.7853982	0.7853982	1e-09
0	0.9927694	-2.0063303e-06	0	-3.531316e-18	-5.1930217e-18	0.09817477	6.1850104	0.66	1e-07	1.28e-07	0.7853982	0.7853982	1e-09
0	0.9964096	0.055637866	0	-3.5287744e-18	-5.194554e-18	0.09817477	6.2831855	0.66	1e-07	1.28e-07	0.7853982	0.7853982	1e-09
0	0.98700976	0.10765052	0	-3.5340704e-18	-5.191695e-18	0.19634955	0	0.66	1e-07	1.28e-07	0.7853982	0.7853982	1e-09
0	0.9840045	0.16357377	0	-3.5351768e-18	-5.1907527e-18	0.19634955	0.09817477	0.66	1e-07	1.28e-07	0.7853982	0.7853982	1e-09
0	0.9749201	0.21602088	0	-3.5396274e-18	-5.1881256e-18	0.19634955	0.19634955	0.66	1e-07	1.28e-07	0.7853982	0.7853982	1e-09
0	0.961228	0.26376525	0	-3.5456597e-18	-5.1854075e-18	0.19634955	0.2945243	0.66	1e-07	1.28e-07	0.7853982	0.7853982	1e-09
0	0.94397384	0.30725318	0	-3.5515657e-18	-5.1832974e-18	0.19634955	0.3926991	0.66	1e-07	1.28e-07	0.7853982	0.7853982	1e-09
0	0.9236986	0.34724328	0	-3.5560697e-18	-5.1818047e-18	0.19634955	0.49087384	0.66	1e-07	1.28e-07	0.7853982	0.7853982	1e-09
0	0.9007167	0.38411424	0	-3.5583106e-18	-5.180748e-18	0.19634955	0.5890486	0.66	1e-07	1.28e-07	0.7853982	0.7853982	1e-09
0	0.87510943	0.41836205	0	-3.5577534e-18	-5.1798865e-18	0.19634955	0.6872234	0.66	1e-07	1.28e-07	0.7853982	0.7853982	1e-09
0	0.84695697	0.45001307	0	-3.5541048e-18	-5.179121e-18	0.19634955	0.7853982	0.66	1e-07	1.28e-07	0.7853982	0.7853982	1e-09
0	0.81621367	0.4793753	0	-3.54727e-18	-5.1783794e-18	0.19634955	0.88357294	0.66	1e-07	1.28e-07	0.7853982	0.7853982	1e-09
0	0.78282404	0.5062578	0	-3.537331e-18	-5.1778065e-18	0.19634955	0.9817477	0.66	1e-07	1.28e-07	0.7853982	0.7853982	1e-09
0	0.7466241	0.5307205	0	-3.524565e-18	-5.1775873e-18	0.19634955	1.0799224	0.66	1e-07	1.28e-07	0.7853982	0.7853982	1e-09
0	0.7072494	0.55262995	0	-3.50948e-18	-5.1780952e-18	0.19634955	1.1780972	0.66	1e-07	1.28e-07	0.7853982	0.7853982	1e-09
0	0.6641831	0.57184047	0	-3.492901e-18	-5.1797066e-18	0.19634955	1.276272	0.66	1e-07	1.28e-07	0.7853982	0.7853982	1e-09
0	0.616576	0.58784664	0	-3.4760896e-18	-5.182773e-18	0.19634955	1.3744467	0.66	1e-07	1.28e-07	0.7853982	0.7853982	1e-09
0	0.56353676	0.599737	0	-3.4608559e-18	-5.186992e-18	0.19634955	1.4726216	0.66	1e-07	1.28e-07	0.7853982	0.7853982	1e-09
0	0.5052799	0.60586405	0	-3.4493959e-18	-5.19064e-18	0.19634955	1.5707964	0.66	1e-07	1.28e-07	0.7853982	0.7853982	1e-09
0	0.44537848	0.6046963	0	-3.443282e-18	-5.191251e-18	0.19634955	1.6689711	0.66	1e-07	1.28e-07	0.7853982	0.7853982	1e-09
0	0.3888311	0.5966969	0	-3.4421312e-18	-5.1889114e-18	0.19634955	1.7671459	0.66	1e-07	1.28e-07	0.7853982	0.7853982	1e-09
0	0.33762518	0.5835134	0	-3.4440446e-18	-5.185689e-18	0.19634955	1.8653207	0.66	1e-07	1.28e-07	0.7853982	0.7853982	1e-09
0	0.2913481	0.56650907	0	-3.4470223e-18	-5.1828606e-18	0.19634955	1.9634954	0.66	1e-07	1.28e-07	0.7853982	0.7853982	1e-09
0	0.2491478	0.546264	0	-3.449572e-18	-5.1807418e-18	0.19634955	2.06167	0.66	1e-07	1.28e-07	0.7853982	0.7853982	1e-09
0	0.21030398	0.52323043	0	-3.4507094e-18	-5.1791966e-18	0.19634955	2.1598449	0.66	1e-07	1.28e-07	0.7853982	0.7853982	1e-09
0	0.17443198	0.49741954	0	-3.4498279e-18	-5.1780712e-18	0.19634955	2.2580197	0.66	1e-07	1.28e-07	0.7853982	0.7853982	1e-09
0	0.14128302	0.46890917	0	-3.4466054e-18	-5.1772358e-18	0.19634955	2.3561945	0.66	1e-07	1.28e-07	0.7853982	0.7853982	1e-09
0	0.1107801	0.4376972	0	-3.440939e-18	-5.1766696e-18	0.19634955	2.4543693	0.66	1e-07	1.28e-07	0.7853982	0.7853982	1e-09
0	0.08289794	0.40370744	0	-3.4329222e-18	-5.176456e-18	0.19634955	2.552544	0.66	1e-07	1.28e-07	0.7853982	0.7853982	1e-09
0	0.057681985	0.36672243	0	-3.4228682e-18	-5.176808e-18	0.19634955	2.6507187	0.66	1e-07	1.28e-07	0.7853982	0.7853982	1e-09
0	0.035255034	0.3262777	0	-3.411359e-18	-5.17805e-18	0.19634955	2.7488935	0.66	1e-07	1.28e-07	0.7853982	0.7853982	1e-09
0	0.01582116	0.2818295	0	-3.3993575e-18	-5.180471e-18	0.19634955	2.8470683	0.66	1e-07	1.28e-07	0.7853982	0.7853982	1e-09
0	-1.5462707e-06	0.23228341	0	-3.3883611e-18	-5.184123e-18	0.19634955	2.9452431	0.66	1e-07	1.28e-07	0.7853982	0.7853982	1e-09
0	-0.010968139	0.17659867	0	-3.3805335e-18	-5.188017e-18	0.19634955	3.043418	0.66	1e-07	1.28e-07	0.7853982	0.7853982	1e-09
0	-0.014999502	0.115860164	0	-3.3783229e-18	-5.1894177e-18	0.19634955	3.1415927	0.66	1e-07	1.28e-07	0.7853982	0.7853982	1e-09
0	-0.010894711	0.05536055	0	-3.3828612e-18	-5.186556e-18	0.19634955	3.2397673	0.66	1e-07	1.28e-07	0.7853982	0.7853982	1e-09
0	-3.4029702e-06	-2.2120517e-07	0	-3.3927783e-18	-5.181763e-18	0.19634955	3.3379421	0.66	1e-07	1.28e-07	0.7853982	0.7853982	1e-09
0	0.01563441	-0.04937908	0	-3.405588e-18	-5.177648e-18	0.19634955	3.436117	0.66	1e-07	1.28e-07	0.7853982	0.7853982	1e-09
0	0.03482899	-0.09378233	0	-3.4191786e-18	-5.1749672e-18	0.19634955	3.5342917	0.66	1e-07	1.28e-07	0.7853982	0.7853982	1e-09
0	0.057035536	-0.13424192	0	-3.4321018e-18	-5.173603e-18	0.19634955	3.6324666	0.66	1e-07	1.28e-07	0.7853982	0.7853982	1e-09
0	0.08201213	-0.1714002	0	-3.443424e-18	-5.1731524e-18	0.19634955	3.7306414	0.66	1e-07	1.28e-07	0.7853982	0.7853982	1e-09
0	0.1096521	-0.20565435	0	-3.4525836e-18	-5.1732996e-18	0.19634955	3.828816	0.66	1e-07	1.28e-07	0.7853982	0.7853982	1e-09
0	0.13990389	-0.2371753	0	-3.4592778e-18	-5.1738203e-18	0.19634955	3.9269907	0.66	1e-07	1.28e-07	0.7853982	0.7853982	1e-09
0	0.17279434	-0.26605386	0	-3.4634154e-18	-5.1746136e-18	0.19634955	4.0251656	0.66	1e-07	1.28e-07	0.7853982	0.7853982	1e-09
0	0.20840989	-0.29231015	0	-3.4651022e-18	-5.175706e-18	0.19634955	4.12334	0.66	1e-07	1.28e-07	0.7853982	0.7853982	1e-09
0	0.24698439	-0.31590742	0	-3.4646615e-18	-5.1772167e-18	0.19634955	4.221515	0.66	1e-07	1.28e-07	0.7853982	0.7853982	1e-09
0	0.2889177	-0.33668256	0	-3.4626943e-18	-5.179307e-18	0.19634955	4.3196898	0.66	1e-07	1.28e-07	0.7853982	0.7853982	1e-09
0	0.334899	-0.35433266	0	-3.460181e-18	-5.1820847e-18	0.19634955	4.417865	0.66	1e-07	1.28e-07	0.7853982	0.7853982	1e-09
0	0.38578352	-0.3682042	0	-3.4585987e-18	-5.1852677e-18	0.19634955	4.5160394	0.66	1e-07	1.28e-07	0.7853982	0.7853982	1e-09
0	0.44197914	-0.37703153	0	-3.4599185e-18	-5.1876152e-18	0.19634955	4.6142144	0.66	1e-07	1.28e-07	0.7853982	0.7853982	1e-09
0	0.5014751	-0.37908322	0	-3.4660057e-18	-5.1871264e-18	0.19634955	4.712389	0.66	1e-07	1.28e-07	0.7853982	0.7853982	1e-09
0	0.55942816	-0.3739797	0	-3.4772324e-18	-5.183743e-18	0.19634955	4.8105636	0.66	1e-07	1.28e-07	0.7853982	0.7853982	1e-09
0	0.61231494	-0.363129	0	-3.4920658e-18	-5.1798244e-18	0.19634955	4.9087386	0.66	1e-07	1.28e-07	0.7853982	0.7853982	1e-09
0	0.65988123	-0.34808323	0	-3.50835e-18	-5.1770174e-18	0.19634955	5.006913	0.66	1e-07	1.28e-07	0.7853982	0.7853982	1e-09
0	0.70297	-0.32973778	0	-3.5243006e-18	-5.1755963e-18	0.19634955	5.105088	0.66	1e-07	1.28e-07	0.7853982	0.7853982	1e-09
0	0.74239576	-0.3086227	0	-3.538668e-18	-5.1752737e-18	0.19634955	5.203263	0.66	1e-07	1.28e-07	0.7853982	0.7853982	1e-09
0	0.77871364	-0.28493887	0	-3.5506322e-18	-5.1756265e-18	0.19634955	5.3014374	0.66	1e-07	1.28e-07	0.7853982	0.7853982	1e-09
0	0.8122513	-0.25878474	0	-3.5596895e-18	-5.176319e-18	0.19634955	5.3996124	0.66	1e-07	1.28e-07	0.7853982	0.7853982	1e-09
0	0.8431857	-0.23020336	0	-3.5655633e-18	-5.1771365e-18	0.19634955	5.497787	0.66	1e-07	1.28e-07	0.7853982	0.7853982	1e-09
0	0.87158614	-0.1991565	0	-3.568169e-18	-5.1779844e-18	0.19634955	5.595962	0.66	1e-07	1.28e-07	0.7853982	0.7853982	1e-09
0	0.89746404	-0.16560136	0	-3.567599e-18	-5.1789013e-18	0.19634955	5.6941366	0.66	1e-07	1.28e-07	0.7853982	0.7853982	1e-09
0	0.92078733	-0.1293299	0	-3.564139e-18	-5.1800287e-18	0.19634955	5.7923117	0.66	1e-07	1.28e-07	0.7853982	0.7853982	1e-09
0	0.9414247	-0.09003185	0	-3.55831e-18	-5.1815975e-18	0.19634955	5.8904862	0.66	1e-07	1.28e-07	0.7853982	0.7853982	1e-09
0	0.95914996	-0.04716648	0	-3.5509507e-18	-5.18387e-18	0.19634955	5.988661	0.66	1e-07	1.28e-07	0.7853982	0.7853982	1e-09
0	0.97339183	-1.2546797e-06	0	-3.5433113e-18	-5.1868662e-18	0.19634955	6.086836	0.66	1e-07	1.28e-07	0.7853982	0.7853982	1e-09
0	0.9831704	0.05193642	0	-3.5370834e-18	-5.1900004e-18	0.19634955	6.1850104	0.66	1e-07	1.28e-07	0.7853982	0.7853982	1e-09
0	0.98701036	0.10764757	0	-3.5340704e-18	-5.1916953e-18	0.19634955	6.2831855	0.66	1e-07	1.28e-07	0.7853982	0.7853982	1e-09
0	0.9730904	0.15494303	0	-3.540843e-18	-5.1888614e-18	0.2945243	0	0.66	1e-07	1.28e-07	0.7853982	0.7853982	1e-09
0	0.9702209	0.2110642	0	-3.5415494e-18	-5.1880036e-18	0.2945243	0.09817477	0.66	1e-07	1.28e-07	0.7853982	0.7853982	1e-09
0	0.9612291	0.26375985	0	-3.5456605e-18	-5.185408e-18	0.2945243	0.19634955	0.66	1e-07	1.28e-07	0.7853982	0.7853982	1e-09
0	0.947573	0.31179342	0	-3.551412e-18	-5.1826625e-18	0.2945243	0.2945243	0.66	1e-07	1.28e-07	0.7853982	0.7853982	1e-09
0	0.9303339	0.35551944	0	-3.5570905e-18	-5.180514e-18	0.2945243	0.3926991	0.66	1e-07	1.28e-07	0.7853982	0.7853982	1e-09
0	0.9100725	0.39566025	0	-3.56141e-18	-5.1789902e-18	0.2945243	0.49087384	0.66	1e-07	1.28e-07	0.7853982	0.7853982	1e-09
0	0.88707757	0.43271294	0	-3.5635028e-18	-5.1778963e-18	0.2945243	0.5890486	0.66	1e-07	1.28e-07	0.7853982	0.7853982	1e-09
0	0.86142343	0.4671776	0	-3.5628307e-18	-5.176995e-18	0.2945243	0.6872234	0.66	1e-07	1.28e-07	0.7853982	0.7853982	1e-09
0	0.83321214	0.4990699	0	-3.559099e-18	-5.1761906e-18	0.2945243	0.7853982	0.66	1e-07	1.28e-07	0.7853982	0.7853982	1e-09
0	0.8024099	0.52854073	0	-3.5522097e-18	-5.175447e-18	0.2945243	0.88357294	0.66	1e-07	1.28e-07	0.7853982	0.7853982	1e-09
0	0.7689436	0.55561316	0	-3.5422488e-18	-5.174854e-18	0.2945243	0.9817477	0.66	1e-07	1.28e-07	0.7853982	0.7853982	1e-09
0	0.7326268	0.5802319	0	-3.5294916e-18	-5.1746446e-18	0.2945243	1.0799224	0.66	1e-07	1.28e-07	0.7853982	0.7853982	1e-09
0	0.6931525	0.60231835	0	-3.514451e-18	-5.175136e-18	0.2945243	1.1780972	0.66	1e-07	1.28e-07	0.7853982	0.7853982	1e-09
0	0.6499715	0.6216886	0	-3.4979545e-18	-5.1767266e-18	0.2945243	1.276272	0.66	1e-07	1.28e-07	0.7853982	0.7853982	1e-09
0	0.6022034	0.6378363	0	-3.48127e-18	-5.1797827e-18	0.2945243	1.3744467	0.66	1e-07	1.28e-07	0.7853982	0.7853982	1e-09
0	0.5489157	0.64984584	0	-3.4662174e-18	-5.18399e-18	0.2945243	1.4726216	0.66	1e-07	1.28e-07	0.7853982	0.7853982	1e-09
0	0.49044165	0.6560657	0	-3.4550021e-18	-5.187543e-18	0.2945243	1.5707964	0.66	1e-07	1.28e-07	0.7853982	0.7853982	1e-09
0	0.430391	0.65491956	0	-3.4491862e-18	-5.18802e-18	0.2945243	1.6689711	0.66	1e-07	1.28e-07	0.7853982	0.7853982	1e-09
0	0.37372637	0.6469833	0	-3.448364e-18	-5.185551e-18	0.2945243	1.7671459	0.66	1e-07	1.28e-07	0.7853982	0.7853982	1e-09
0	0.3223952	0.6338484	0	-3.450617e-18	-5.1822328e-18	0.2945243	1.8653207	0.66	1e-07	1.28e-07	0.7853982	0.7853982	1e-09
0	0.27607286	0.6167944	0	-3.4539417e-18	-5.1793682e-18	0.2945243	1.9634954	0.66	1e-07	1.28e-07	0.7853982	0.7853982	1e-09
0	0.23374759	0.59660804	0	-3.456848e-18	-5.1771973e-18	0.2945243	2.06167	0.66	1e-07	1.28e-07	0.7853982	0.7853982	1e-09
0	0.19483219	0.5735097	0	-3.4583501e-18	-5.1756397e-18	0.2945243	2.1598449	0.66	1e-07	1.28e-07	0.7853982	0.7853982	1e-09
0	0.15888351	0.54765767	0	-3.457843e-18	-5.174505e-18	0.2945243	2.2580197	0.66	1e-07	1.28e-07	0.7853982	0.7853982	1e-09
0	0.12567289	0.51910174	0	-3.4550058e-18	-5.1736652e-18	0.2945243	2.3561945	0.66	1e-07	1.28e-07	0.7853982	0.7853982	1e-09
0	0.095111996	0.48782822	0	-3.4497342e-18	-5.1731003e-18	0.2945243	2.4543693	0.66	1e-07	1.28e-07	0.7853982	0.7853982	1e-09
0	0.06720319	0.4537199	0	-3.4421241e-18	-5.172904e-18	0.2945243	2.552544	0.66	1e-07	1.28e-07	0.7853982	0.7853982	1e-09
0	0.041919876	0.41666523	0	-3.4324908e-18	-5.173253e-18	0.2945243	2.6507187	0.66	1e-07	1.28e-07	0.7853982	0.7853982	1e-09
0	0.019445596	0.37611377	0	-3.4214171e-18	-5.174494e-18	0.2945243	2.7488935	0.66	1e-07	1.28e-07	0.7853982	0.7853982	1e-09
0	-7.825312e-07	0.33154786	0	-3.4098713e-18	-5.1768834e-18	0.2945243	2.8470683	0.66	1e-07	1.28e-07	0.7853982	0.7853982	1e-09
0	-0.01582281	0.2818829	0	-3.3993573e-18	-5.180454e-18	0.2945243	2.9452431	0.66	1e-07	1.28e-07	0.7853982	0.7853982	1e-09
0	-0.026748799	0.22596066	0	-3.392038e-18	-5.184224e-18	0.2945243	3.043418	0.66	1e-07	1.28e-07	0.7853982	0.7853982	1e-09
0	-0.030703094	0.16517523	0	-3.3903348e-18	-5.185422e-18	0.2945243	3.1415927	0.66	1e-07	1.28e-07	0.7853982	0.7853982	1e-09
0	-0.026549837	0.10469837	0	-3.3953192e-18	-5.1824338e-18	0.2945243	3.2397673	0.66	1e-07	1.28e-07	0.7853982	0.7853982	1e-09
0	-0.01563879	0.049373083	0	-3.405587e-18	-5.1776527e-18	0.2945243	3.3379421	0.66	1e-07	1.28e-07	0.7853982	0.7853982	1e-09
0	-1.5254238e-06	-4.437931e-06	0	-3.4186645e-18	-5.1736107e-18	0.2945243	3.436117	0.66	1e-07	1.28e-07	0.7853982	0.7853982	1e-09
0	0.01919069	-0.04445621	0	-3.4324614e-18	-5.171016e-18	0.2945243	3.5342917	0.66	1e-07	1.28e-07	0.7853982	0.7853982	1e-09
0	0.04139215	-0.08496904	0	-3.4455383e-18	-5.1697386e-18	0.2945243	3.6324666	0.66	1e-07	1.28e-07	0.7853982	0.7853982	1e-09
0	0.06636564	-0.122203365	0	-3.4569751e-18	-5.1693784e-18	0.2945243	3.7306414	0.66	1e-07	1.28e-07	0.7853982	0.7853982	1e-09
0	0.09399367	-0.15651308	0	-3.4662102e-18	-5.1695947e-18	0.2945243	3.828816	0.66	1e-07	1.28e-07	0.7853982	0.7853982	1e-09
0	0.124242604	-0.18810973	0	-3.4729463e-18	-5.17018e-18	0.2945243	3.9269907	0.66	1e-07	1.28e-07	0.7853982	0.7853982	1e-09
0	0.15712121	-0.21706669	0	-3.4770934e-18	-5.171035e-18	0.2945243	4.0251656	0.66	1e-07	1.28e-07	0.7853982	0.7853982	1e-09
0	0.1927482	-0.24344496	0	-3.4787544e-18	-5.172195e-18	0.2945243	4.12334	0.66	1e-07	1.28e-07	0.7853982	0.7853982	1e-09
0	0.23128663	-0.26706082	0	-3.478255e-18	-5.173727e-18	0.2945243	4.221515	0.66	1e-07	1.28e-07	0.7853982	0.7853982	1e-09
0	0.27320528	-0.28792158	0	-3.4761926e-18	-5.1758577e-18	0.2945243	4.3196898	0.66	1e-07	1.28e-07	0.7853982	0.7853982	1e-09
0	0.31919098	-0.30572122	0	-3.473544e-18	-5.1787003e-18	0.2945243	4.417865	0.66	1e-07	1.28e-07	0.7853982	0.7853982	1e-09
0	0.3700307	-0.31969583	0	-3.4717796e-18	-5.1819383e-18	0.2945243	4.5160394	0.66	1e-07	1.28e-07	0.7853982	0.7853982	1e-09
0	0.4261911	-0.32868084	0	-3.4728653e-18	-5.1843896e-18	0.2945243	4.6142144	0.66	1e-07	1.28e-07	0.7853982	0.7853982	1e-09
0	0.48564532	-0.3309109	0	-3.4786634e-18	-5.184052e-18	0.2945243	4.712389	0.66	1e-07	1.28e-07	0.7853982	0.7853982	1e-09
0	0.5436741	-0.32599166	0	-3.4895677e-18	-5.180814e-18	0.2945243	4.8105636	0.66	1e-07	1.28e-07	0.7853982	0.7853982	1e-09
0	0.5966499	-0.31523684	0	-3.504067e-18	-5.1769678e-18	0.2945243	4.9087386	0.66	1e-07	1.28e-07	0.7853982	0.7853982	1e-09
0	0.6443368	-0.30037418	0	-3.520014e-18	-5.17423e-18	0.2945243	5.006913	0.66	1e-07	1.28e-07	0.7853982	0.7853982	1e-09
0	0.68753725	-0.28220138	0	-3.535627e-18	-5.172848e-18	0.2945243	5.105088	0.66	1e-07	1.28e-07	0.7853982	0.7853982	1e-09
0	0.7270952	-0.26113448	0	-3.5496553e-18	-5.1724973e-18	0.2945243	5.203263	0.66	1e-07	1.28e-07	0.7853982	0.7853982	1e-09