# t (s)	mx ()	my ()	mz ()	E_total (J)	E_Zeeman (J)	island1_angle (rad)	island2_angle (rad)	roundness ()	size (m)	islands_distance (m)	islands_angle (rad)
0	0.99752825	2.0517774e-09	0	-2.7777827e-18	-4.3540116e-18	0	0	0.49	1e-07	1.28e-07	0
0	0.9953144	0.046302825	0	-2.777332e-18	-4.353938e-18	0	0.09817477	0.49	1e-07	1.28e-07	0
0	0.98866564	0.09233475	0	-2.7760142e-18	-4.353727e-18	0	0.19634955	0.49	1e-07	1.28e-07	0
0	0.97756296	0.13780588	0	-2.773924e-18	-4.3533966e-18	0	0.2945243	0.49	1e-07	1.28e-07	0
0	0.961996	0.18236518	0	-2.7712079e-18	-4.3529672e-18	0	0.3926991	0.49	1e-07	1.28e-07	0
0	0.9420118	0.22556195	0	-2.7680303e-18	-4.3524623e-18	0	0.49087384	0.49	1e-07	1.28e-07	0
0	0.9177708	0.26685867	0	-2.7645334e-18	-4.3519304e-18	0	0.5890486	0.49	1e-07	1.28e-07	0
0	0.88954544	0.30572835	0	-2.7607986e-18	-4.3514655e-18	0	0.6872234	0.49	1e-07	1.28e-07	0
0	0.85765135	0.34174612	0	-2.7568542e-18	-4.3511797e-18	0	0.7853982	0.49	1e-07	1.28e-07	0
0	0.8223749	0.37459838	0	-2.7527169e-18	-4.3511475e-18	0	0.88357294	0.49	1e-07	1.28e-07	0
0	0.78399056	0.40399784	0	-2.7484155e-18	-4.3513605e-18	0	0.9817477	0.49	1e-07	1.28e-07	0
0	0.7428441	0.42962593	0	-2.7439889e-18	-4.35173e-18	0	1.0799224	0.49	1e-07	1.28e-07	0
0	0.69940627	0.45115575	0	-2.739444e-18	-4.3521363e-18	0	1.1780972	0.49	1e-07	1.28e-07	0
0	0.65421087	0.46834382	0	-2.734729e-18	-4.3524904e-18	0	1.276272	0.49	1e-07	1.28e-07	0
0	0.6077636	0.48104894	0	-2.7297504e-18	-4.352748e-18	0	1.3744467	0.49	1e-07	1.28e-07	0
0	0.5604692	0.4892215	0	-2.7244128e-18	-4.3528986e-18	0	1.4726216	0.49	1e-07	1.28e-07	0
0	0.5126586	0.492838	0	-2.7186592e-18	-4.3529433e-18	0	1.5707964	0.49	1e-07	1.28e-07	0
0	0.46462968	0.49187127	0	-2.7124923e-18	-4.3528936e-18	0	1.6689711	0.49	1e-07	1.28e-07	0
0	0.41667825	0.48627967	0	-2.7059843e-18	-4.3527745e-18	0	1.7671459	0.49	1e-07	1.28e-07	0
0	0.36911097	0.4760079	0	-2.699274e-18	-4.352617e-18	0	1.8653207	0.49	1e-07	1.28e-07	0
0	0.32229722	0.4609989	0	-2.6925637e-18	-4.3524407e-18	0	1.9634954	0.49	1e-07	1.28e-07	0
0	0.2767189	0.4412433	0	-2.6860939e-18	-4.352253e-18	0	2.06167	0.49	1e-07	1.28e-07	0
0	0.23298468	0.4168519	0	-2.6800857e-18	-4.3520636e-18	0	2.1598449	0.49	1e-07	1.28e-07	0
0	0.19174093	0.3880852	0	-2.6746968e-18	-4.3519254e-18	0	2.2580197	0.49	1e-07	1.28e-07	0
0	0.1535417	0.35528797	0	-2.6700094e-18	-4.3519275e-18	0	2.3561945	0.49	1e-07	1.28e-07	0
0	0.11881264	0.3188047	0	-2.666065e-18	-4.3521347e-18	0	2.4543693	0.49	1e-07	1.28e-07	0
0	0.08793182	0.27898967	0	-2.6628995e-18	-4.3525226e-18	0	2.552544	0.49	1e-07	1.28e-07	0
0	0.061293617	0.23629911	0	-2.6605278e-18	-4.352982e-18	0	2.6507187	0.49	1e-07	1.28e-07	0
0	0.039260577	0.19132991	0	-2.6589047e-18	-4.353404e-18	0	2.7488935	0.49	1e-07	1.28e-07	0
0	0.022066373	0.14472179	0	-2.6579034e-18	-4.353732e-18	0	2.8470683	0.49	1e-07	1.28e-07	0
0	0.009795805	0.097027585	0	-2.6573543e-18	-4.3539623e-18	0	2.9452431	0.49	1e-07	1.28e-07	0
0	0.0024468636	0.048671957	0	-2.6570958e-18	-4.3541013e-18	0	3.043418	0.49	1e-07	1.28e-07	0
0	-4.1076516e-09	3.6597428e-10	0	-2.6570224e-18	-4.354149e-18	0	3.1415927	0.49	1e-07	1.28e-07	0
0	0.0024468643	-0.04867197	0	-2.6570962e-18	-4.3541013e-18	0	3.2397673	0.49	1e-07	1.28e-07	0
0	0.009795847	-0.097027674	0	-2.657355e-18	-4.3539628e-18	0	3.3379421	0.49	1e-07	1.28e-07	0
0	0.022066804	-0.1447226	0	-2.6579038e-18	-4.353732e-18	0	3.436117	0.49	1e-07	1.28e-07	0
0	0.039260633	-0.19133	0	-2.6589036e-18	-4.353403e-18	0	3.5342917	0.49	1e-07	1.28e-07	0
0	0.06129371	-0.23629925	0	-2.6605276e-18	-4.3529826e-18	0	3.6324666	0.49	1e-07	1.28e-07	0
0	0.087931775	-0.2789896	0	-2.6628991e-18	-4.3525222e-18	0	3.7306414	0.49	1e-07	1.28e-07	0
0	0.118812755	-0.3188048	0	-2.6660645e-18	-4.3521347e-18	0	3.828816	0.49	1e-07	1.28e-07	0
0	0.15354203	-0.3552881	0	-2.670009e-18	-4.3519275e-18	0	3.9269907	0.49	1e-07	1.28e-07	0
0	0.19174083	-0.38808516	0	-2.6746964e-18	-4.351925e-18	0	4.0251656	0.49	1e-07	1.28e-07	0
0	0.23298632	-0.4168522	0	-2.6800855e-18	-4.3520636e-18	0	4.12334	0.49	1e-07	1.28e-07	0
0	0.27671915	-0.44124323	0	-2.6860943e-18	-4.352253e-18	0	4.221515	0.49	1e-07	1.28e-07	0
0	0.32229775	-0.4609989	0	-2.6925643e-18	-4.352441e-18	0	4.3196898	0.49	1e-07	1.28e-07	0
0	0.36911115	-0.47600794	0	-2.699274e-18	-4.3526165e-18	0	4.417865	0.49	1e-07	1.28e-07	0
0	0.41667816	-0.48627967	0	-2.7059834e-18	-4.3527745e-18	0	4.5160394	0.49	1e-07	1.28e-07	0
0	0.46463063	-0.491871	0	-2.7124921e-18	-4.3528936e-18	0	4.6142144	0.49	1e-07	1.28e-07	0
0	0.5126591	-0.49283776	0	-2.7186592e-18	-4.3529433e-18	0	4.712389	0.49	1e-07	1.28e-07	0
0	0.5604691	-0.48922157	0	-2.7244126e-18	-4.3528986e-18	0	4.8105636	0.49	1e-07	1.28e-07	0
0	0.60776377	-0.481049	0	-2.7297508e-18	-4.352748e-18	0	4.9087386	0.49	1e-07	1.28e-07	0
0	0.65421146	-0.46834344	0	-2.7347292e-18	-4.3524904e-18	0	5.006913	0.49	1e-07	1.28e-07	0
0	0.6994058	-0.45115635	0	-2.739444e-18	-4.3521368e-18	0	5.105088	0.49	1e-07	1.28e-07	0
0	0.7428443	-0.42962575	0	-2.7439889e-18	-4.3517298e-18	0	5.203263	0.49	1e-07	1.28e-07	0
0	0.78399056	-0.40399787	0	-2.7484153e-18	-4.3513605e-18	0	5.3014374	0.49	1e-07	1.28e-07	0
0	0.8223749	-0.37459818	0	-2.752716e-18	-4.351147e-18	0	5.3996124	0.49	1e-07	1.28e-07	0
0	0.85765153	-0.34174603	0	-2.7568546e-18	-4.351179e-18	0	5.497787	0.49	1e-07	1.28e-07	0
0	0.8895453	-0.3057283	0	-2.7607984e-18	-4.351466e-18	0	5.595962	0.49	1e-07	1.28e-07	0
0	0.9177708	-0.26685873	0	-2.7645327e-18	-4.3519304e-18	0	5.6941366	0.49	1e-07	1.28e-07	0
0	0.94201195	-0.22556154	0	-2.7680303e-18	-4.3524614e-18	0	5.7923117	0.49	1e-07	1.28e-07	0
0	0.96199596	-0.18236518	0	-2.7712075e-18	-4.3529672e-18	0	5.8904862	0.49	1e-07	1.28e-07	0
0	0.97756314	-0.13780499	0	-2.7739243e-18	-4.353397e-18	0	5.988661	0.49	1e-07	1.28e-07	0
0	0.9886657	-0.092334546	0	-2.7760148e-18	-4.3537274e-18	0	6.086836	0.49	1e-07	1.28e-07	0
0	0.9953144	-0.046302397	0	-2.777332e-18	-4.353938e-18	0	6.1850104	0.49	1e-07	1.28e-07	0
0	0.9975282	2.1617061e-09	0	-2.7777827e-18	-4.3540116e-18	0	6.2831855	0.49	1e-07	1.28e-07	0
0	0.99531454	0.046302542	0	-2.777332e-18	-4.353938e-18	0.09817477	0	0.49	1e-07	1.28e-07	0
0	0.9931928	0.09261997	0	-2.7766664e-18	-4.3538387e-18	0.09817477	0.09817477	0.49	1e-07	1.28e-07	0
0	0.9866336	0.13868281	0	-2.775135e-18	-4.3536025e-18	0.09817477	0.19634955	0.49	1e-07	1.28e-07	0
0	0.97561634	0.18420139	0	-2.7728364e-18	-4.3532493e-18	0.09817477	0.2945243	0.49	1e-07	1.28e-07	0
0	0.9601294	0.22882304	0	-2.7699156e-18	-4.3527993e-18	0.09817477	0.3926991	0.49	1e-07	1.28e-07	0
0	0.940218	0.2720999	0	-2.7665407e-18	-4.352277e-18	0.09817477	0.49087384	0.49	1e-07	1.28e-07	0
0	0.9160399	0.31349176	0	-2.7628554e-18	-4.3517323e-18	0.09817477	0.5890486	0.49	1e-07	1.28e-07	0
0	0.8878659	0.3524714	0	-2.7589433e-18	-4.3512562e-18	0.09817477	0.6872234	0.49	1e-07	1.28e-07	0
0	0.8560113	0.38861048	0	-2.7548357e-18	-4.3509626e-18	0.09817477	0.7853982	0.49	1e-07	1.28e-07	0
0	0.8207619	0.42159247	0	-2.750548e-18	-4.350927e-18	0.09817477	0.88357294	0.49	1e-07	1.28e-07	0
0	0.78238964	0.45113137	0	-2.746114e-18	-4.3511425e-18	0.09817477	0.9817477	0.49	1e-07	1.28e-07	0
0	0.74124	0.47690442	0	-2.7415733e-18	-4.351518e-18	0.09817477	1.0799224	0.49	1e-07	1.28e-07	0
0	0.69778156	0.49858412	0	-2.7369345e-18	-4.3519337e-18	0.09817477	1.1780972	0.49	1e-07	1.28e-07	0
0	0.65255535	0.5159155	0	-2.7321492e-18	-4.352298e-18	0.09817477	1.276272	0.49	1e-07	1.28e-07	0
0	0.6060652	0.52876055	0	-2.7271225e-18	-4.352567e-18	0.09817477	1.3744467	0.49	1e-07	1.28e-07	0
0	0.5587195	0.5370653	0	-2.721761e-18	-4.3527307e-18	0.09817477	1.4726216	0.49	1e-07	1.28e-07	0
0	0.51085097	0.5408055	0	-2.7160064e-18	-4.352789e-18	0.09817477	1.5707964	0.49	1e-07	1.28e-07	0
0	0.46275926	0.5399528	0	-2.709862e-18	-4.3527543e-18	0.09817477	1.6689711	0.49	1e-07	1.28e-07	0
0	0.4147388	0.53446543	0	-2.7033995e-18	-4.3526504e-18	0.09817477	1.7671459	0.49	1e-07	1.28e-07	0
0	0.3671003	0.52428645	0	-2.6967591e-18	-4.3525073e-18	0.09817477	1.8653207	0.49	1e-07	1.28e-07	0
0	0.3202134	0.509358	0	-2.6901446e-18	-4.3523465e-18	0.09817477	1.9634954	0.49	1e-07	1.28e-07	0
0	0.27456293	0.48967013	0	-2.6837943e-18	-4.3521707e-18	0.09817477	2.06167	0.49	1e-07	1.28e-07	0
0	0.23076102	0.46533427	0	-2.6779292e-18	-4.35199e-18	0.09817477	2.1598449	0.49	1e-07	1.28e-07	0
0	0.1894584	0.43661195	0	-2.6727068e-18	-4.351857e-18	0.09817477	2.2580197	0.49	1e-07	1.28e-07	0
0	0.1512099	0.4038501	0	-2.6682057e-18	-4.351864e-18	0.09817477	2.3561945	0.49	1e-07	1.28e-07	0
0	0.11644149	0.36739457	0	-2.6644654e-18	-4.352075e-18	0.09817477	2.4543693	0.49	1e-07	1.28e-07	0
0	0.08553192	0.32760182	0	-2.6615183e-18	-4.352464e-18	0.09817477	2.552544	0.49	1e-07	1.28e-07	0
0	0.058871344	0.2849266	0	-2.6593772e-18	-4.3529246e-18	0.09817477	2.6507187	0.49	1e-07	1.28e-07	0
0	0.036824916	0.23997073	0	-2.6579925e-18	-4.353346e-18	0.09817477	2.7488935	0.49	1e-07	1.28e-07	0
0	0.01962384	0.19337471	0	-2.657236e-18	-4.3536745e-18	0.09817477	2.8470683	0.49	1e-07	1.28e-07	0
0	0.0073499037	0.14568958	0	-2.6569337e-18	-4.3539073e-18	0.09817477	2.9452431	0.49	1e-07	1.28e-07	0
0	2.7966989e-09	0.09733939	0	-2.6569232e-18	-4.3540504e-18	0.09817477	3.043418	0.49	1e-07	1.28e-07	0
0	-0.0024468496	0.0486719	0	-2.657096e-18	-4.3541013e-18	0.09817477	3.1415927	0.49	1e-07	1.28e-07	0
0	1.2235558e-09	4.369842e-11	0	-2.6574133e-18	-4.354058e-18	0.09817477	3.2397673	0.49	1e-07	1.28e-07	0
0	0.0073479377	-0.048359036	0	-2.6579112e-18	-4.3539226e-18	0.09817477	3.3379421	0.49	1e-07	1.28e-07	0
0	0.019615496	-0.09606034	0	-2.6586944e-18	-4.353695e-18	0.09817477	3.436117	0.49	1e-07	1.28e-07	0
0	0.036802787	-0.14267832	0	-2.6599202e-18	-4.3533684e-18	0.09817477	3.5342917	0.49	1e-07	1.28e-07	0
0	0.0588234	-0.18766083	0	-2.6617586e-18	-4.3529482e-18	0.09817477	3.6324666	0.49	1e-07	1.28e-07	0
0	0.08544207	-0.23036905	0	-2.6643314e-18	-4.35249e-18	0.09817477	3.7306414	0.49	1e-07	1.28e-07	0
0	0.11629493	-0.27020788	0	-2.667681e-18	-4.3521066e-18	0.09817477	3.828816	0.49	1e-07	1.28e-07	0
0	0.15098831	-0.30672342	0	-2.6717911e-18	-4.3519047e-18	0.09817477	3.9269907	0.49	1e-07	1.28e-07	0
0	0.18914464	-0.33956307	0	-2.6766227e-18	-4.351909e-18	0.09817477	4.0251656	0.49	1e-07	1.28e-07	0
0	0.23033737	-0.3683833	0	-2.6821319e-18	-4.3520557e-18	0.09817477	4.12334	0.49	1e-07	1.28e-07	0
0	0.2740164	-0.3928408	0	-2.688235e-18	-4.352256e-18	0.09817477	4.221515	0.49	1e-07	1.28e-07	0
0	0.31953812	-0.41267624	0	-2.694774e-18	-4.3524556e-18	0.09817477	4.3196898	0.49	1e-07	1.28e-07	0
0	0.36629674	-0.4277782	0	-2.701527e-18	-4.352645e-18	0.09817477	4.417865	0.49	1e-07	1.28e-07	0
0	0.41381264	-0.4381549	0	-2.7082553e-18	-4.352817e-18	0.09817477	4.5160394	0.49	1e-07	1.28e-07	0
0	0.46171916	-0.44386187	0	-2.7147576e-18	-4.3529495e-18	0.09817477	4.6142144	0.49	1e-07	1.28e-07	0
0	0.5097075	-0.44495386	0	-2.7208946e-18	-4.3530107e-18	0.09817477	4.712389	0.49	1e-07	1.28e-07	0
0	0.55748534	-0.44147104	0	-2.7265966e-18	-4.352976e-18	0.09817477	4.8105636	0.49	1e-07	1.28e-07	0
0	0.60475534	-0.43343937	0	-2.7318603e-18	-4.352834e-18	0.09817477	4.9087386	0.49	1e-07	1.28e-07	0
0	0.6511883	-0.42088023	0	-2.7367428e-18	-4.352584e-18	0.09817477	5.006913	0.49	1e-07	1.28e-07	0
0	0.6963787	-0.40384403	0	-2.7413402e-18	-4.3522373e-18	0.09817477	5.105088	0.49	1e-07	1.28e-07	0
0	0.7398289	-0.3824613	0	-2.745747e-18	-4.351835e-18	0.09817477	5.203263	0.49	1e-07	1.28e-07	0
0	0.78100127	-0.35697797	0	-2.7500184e-18	-4.351467e-18	0.09817477	5.3014374	0.49	1e-07	1.28e-07	0
0	0.819427	-0.32771292	0	-2.7541487e-18	-4.35125e-18	0.09817477	5.3996124	0.49	1e-07	1.28e-07	0
0	0.854756	-0.29498658	0	-2.7581024e-18	-4.3512736e-18	0.09817477	5.497787	0.49	1e-07	1.28e-07	0
0	0.88671464	-0.2590797	0	-2.7618512e-18	-4.3515474e-18	0.09817477	5.595962	0.49	1e-07	1.28e-07	0
0	0.9150124	-0.22031087	0	-2.7653829e-18	-4.351997e-18	0.09817477	5.6941366	0.49	1e-07	1.28e-07	0
0	0.93933547	-0.17909668	0	-2.7686697e-18	-4.3525102e-18	0.09817477	5.7923117	0.49	1e-07	1.28e-07	0
0	0.9594074	-0.13596714	0	-2.7716318e-18	-4.3529954e-18	0.09817477	5.8904862	0.49	1e-07	1.28e-07	0
0	0.9750665	-0.091457106	0	-2.7741299e-18	-4.353402e-18	0.09817477	5.988661	0.49	1e-07	1.28e-07	0
0	0.9862635	-0.0460169	0	-2.7760014e-18	-4.3537076e-18	0.09817477	6.086836	0.49	1e-07	1.28e-07	0
0	0.9930068	3.2664569e-09	0	-2.7771e-18	-4.353892e-18	0.09817477	6.1850104	0.49	1e-07	1.28e-07	0
0	0.9953144	0.046302564	0	-2.7773317e-18	-4.353938e-18	0.09817477	6.2831855	0.49	1e-07	1.28e-07	0
0	0.9886657	0.09233468	0	-2.7760142e-18	-4.353727e-18	0.19634955	0	0.49	1e-07	1.28e-07	0
0	0.9866336	0.13868313	0	-2.7751355e-18	-4.3536025e-18	0.19634955	0.09817477	0.49	1e-07	1.28e-07	0
0	0.9801575	0.18479195	0	-2.7733985e-18	-4.353343e-18	0.19634955	0.19634955	0.49	1e-07	1.28e-07	0
0	0.9692159	0.23037228	0	-2.7709008e-18	-4.352969e-18	0.19634955	0.2945243	0.49	1e-07	1.28e-07	0
0	0.9537962	0.27507058	0	-2.767792e-18	-4.3525036e-18	0.19634955	0.3926991	0.49	1e-07	1.28e-07	0
0	0.9339408	0.31843868	0	-2.7642395e-18	-4.351969e-18	0.19634955	0.49087384	0.49	1e-07	1.28e-07	0
0	0.9098054	0.35993823	0	-2.7603898e-18	-4.351415e-18	0.19634955	0.5890486	0.49	1e-07	1.28e-07	0
0	0.8816614	0.39903453	0	-2.756327e-18	-4.3509324e-18	0.19634955	0.6872234	0.49	1e-07	1.28e-07	0
0	0.84982175	0.43530086	0	-2.7520861e-18	-4.3506367e-18	0.19634955	0.7853982	0.49	1e-07	1.28e-07	0
0	0.81457126	0.46841893	0	-2.7476843e-18	-4.350604e-18	0.19634955	0.88357294	0.49	1e-07	1.28e-07	0
0	0.77618104	0.49810007	0	-2.743156e-18	-4.3508273e-18	0.19634955	0.9817477	0.49	1e-07	1.28e-07	0
0	0.7349973	0.5240175	0	-2.7385433e-18	-4.3512145e-18	0.19634955	1.0799224	0.49	1e-07	1.28e-07	0
0	0.6914894	0.5458406	0	-2.7338565e-18	-4.3516438e-18	0.19634955	1.1780972	0.49	1e-07	1.28e-07	0
0	0.64620143	0.5633104	0	-2.7290483e-18	-4.352023e-18	0.19634955	1.276272	0.49	1e-07	1.28e-07	0
0	0.5996399	0.57628614	0	-2.7240238e-18	-4.352307e-18	0.19634955	1.3744467	0.49	1e-07	1.28e-07	0
0	0.55221575	0.58471274	0	-2.7186881e-18	-4.3524862e-18	0.19634955	1.4726216	0.49	1e-07	1.28e-07	0
0	0.504264	0.58856446	0	-2.7129845e-18	-4.352562e-18	0.19634955	1.5707964	0.49	1e-07	1.28e-07	0
0	0.4560843	0.58781296	0	-2.7069146e-18	-4.352544e-18	0.19634955	1.6689711	0.49	1e-07	1.28e-07	0
0	0.40797356	0.58241546	0	-2.7005507e-18	-4.3524577e-18	0.19634955	1.7671459	0.49	1e-07	1.28e-07	0
0	0.36024335	0.57231444	0	-2.694033e-18	-4.352331e-18	0.19634955	1.8653207	0.49	1e-07	1.28e-07	0
0	0.31326538	0.5574517	0	-2.6875642e-18	-4.352184e-18	0.19634955	1.9634954	0.49	1e-07	1.28e-07	0
0	0.2675284	0.53781736	0	-2.6813835e-18	-4.3520185e-18	0.19634955	2.06167	0.49	1e-07	1.28e-07	0
0	0.22364855	0.51352394	0	-2.6757117e-18	-4.3518444e-18	0.19634955	2.1598449	0.49	1e-07	1.28e-07	0
0	0.18227935	0.48483536	0	-2.6707005e-18	-4.3517145e-18	0.19634955	2.2580197	0.49	1e-07	1.28e-07	0
0	0.14397809	0.45210114	0	-2.666429e-18	-4.351724e-18	0.19634955	2.3561945	0.49	1e-07	1.28e-07	0
0	0.109164506	0.4156649	0	-2.6629301e-18	-4.3519353e-18	0.19634955	2.4543693	0.49	1e-07	1.28e-07	0
0	0.07822226	0.3758876	0	-2.660235e-18	-4.3523237e-18	0.19634955	2.552544	0.49	1e-07	1.28e-07	0
0	0.05154185	0.3332279	0	-2.658352e-18	-4.352782e-18	0.19634955	2.6507187	0.49	1e-07	1.28e-07	0
0	0.029483417	0.28828606	0	-2.657229e-18	-4.353201e-18	0.19634955	2.7488935	0.49	1e-07	1.28e-07	0
0	0.012275885	0.24170181	0	-2.6567341e-18	-4.3535285e-18	0.19634955	2.8470683	0.49	1e-07	1.28e-07	0
0	-2.7093021e-09	0.19402957	0	-2.65669e-18	-4.353762e-18	0.19634955	2.9452431	0.49	1e-07	1.28e-07	0
0	-0.007349841	0.14568932	0	-2.656933e-18	-4.353907e-18	0.19634955	3.043418	0.49	1e-07	1.28e-07	0
0	-0.009795867	0.09702772	0	-2.6573541e-18	-4.353962e-18	0.19634955	3.1415927	0.49	1e-07	1.28e-07	0
0	-0.007347967	0.048359115	0	-2.6579112e-18	-4.3539226e-18	0.19634955	3.2397673	0.49	1e-07	1.28e-07	0
0	1.9227304e-09	-2.184921e-09	0	-2.658639e-18	-4.3537903e-18	0.19634955	3.3379421	0.49	1e-07	1.28e-07	0
0	0.012265418	-0.047705	0	-2.6596406e-18	-4.3535653e-18	0.19634955	3.436117	0.49	1e-07	1.28e-07	0
0	0.029446986	-0.09433041	0	-2.6610723e-18	-4.353241e-18	0.19634955	3.5342917	0.49	1e-07	1.28e-07	0
0	0.05145666	-0.13932459	0	-2.6631e-18	-4.3528233e-18	0.19634955	3.6324666	0.49	1e-07	1.28e-07	0
0	0.078057654	-0.18205021	0	-2.6658435e-18	-4.352369e-18	0.19634955	3.7306414	0.49	1e-07	1.28e-07	0
0	0.10888708	-0.22191519	0	-2.6693416e-18	-4.35199e-18	0.19634955	3.828816	0.49	1e-07	1.28e-07	0
0	0.14354979	-0.2584664	0	-2.6735772e-18	-4.3517947e-18	0.19634955	3.9269907	0.49	1e-07	1.28e-07	0
0	0.18166995	-0.2913537	0	-2.6785088e-18	-4.3518063e-18	0.19634955	4.0251656	0.49	1e-07	1.28e-07	0
0	0.22282213	-0.32023463	0	-2.6840913e-18	-4.351963e-18	0.19634955	4.12334	0.49	1e-07	1.28e-07	0
0	0.26645938	-0.3447667	0	-2.6902403e-18	-4.352175e-18	0.19634955	4.221515	0.49	1e-07	1.28e-07	0
0	0.31193808	-0.36469173	0	-2.6967972e-18	-4.3523882e-18	0.19634955	4.3196898	0.49	1e-07	1.28e-07	0
0	0.35866	-0.37989712	0	-2.7035408e-18	-4.3525905e-18	0.19634955	4.417865	0.49	1e-07	1.28e-07	0
0	0.40614557	-0.39038855	0	-2.7102356e-18	-4.3527745e-18	0.19634955	4.5160394	0.49	1e-07	1.28e-07	0
0	0.45402855	-0.3962205	0	-2.7166803e-18	-4.3529176e-18	0.19634955	4.6142144	0.49	1e-07	1.28e-07	0
0	0.50200117	-0.3974461	0	-2.722737e-18	-4.352988e-18	0.19634955	4.712389	0.49	1e-07	1.28e-07	0
0	0.5497719	-0.39410406	0	-2.7283357e-18	-4.35296e-18	0.19634955	4.8105636	0.49	1e-07	1.28e-07	0
0	0.5970443	-0.38621885	0	-2.7334758e-18	-4.352824e-18	0.19634955	4.9087386	0.49	1e-07	1.28e-07	0
0	0.64348996	-0.3738105	0	-2.7382133e-18	-4.3525776e-18	0.19634955	5.006913	0.49	1e-07	1.28e-07	0
0	0.6887063	-0.35692564	0	-2.7426468e-18	-4.3522335e-18	0.19634955	5.105088	0.49	1e-07	1.28e-07	0
0	0.732196	-0.33569294	0	-2.7468726e-18	-4.3518324e-18	0.19634955	5.203263	0.49	1e-07	1.28e-07	0
0	0.7734239	-0.3103501	0	-2.750947e-18	-4.351461e-18	0.19634955	5.3014374	0.49	1e-07	1.28e-07	0
0	0.8119172	-0.28121674	0	-2.754869e-18	-4.3512355e-18	0.19634955	5.3996124	0.49	1e-07	1.28e-07	0
0	0.8473248	-0.24860771	0	-2.7586054e-18	-4.3512455e-18	0.19634955	5.497787	0.49	1e-07	1.28e-07	0
0	0.87937075	-0.21280402	0	-2.762131e-18	-4.3515027e-18	0.19634955	5.595962	0.49	1e-07	1.28e-07	0
0	0.907763	-0.17412193	0	-2.7654327e-18	-4.3519324e-18	0.19634955	5.6941366	0.49	1e-07	1.28e-07	0
0	0.93218553	-0.13297834	0	-2.7684869e-18	-4.3524254e-18	0.19634955	5.7923117	0.49	1e-07	1.28e-07	0
0	0.95236	-0.08990118	0	-2.7712164e-18	-4.352888e-18	0.19634955	5.8904862	0.49	1e-07	1.28e-07	0
0	0.96812284	-0.04542374	0	-2.7734843e-18	-4.353271e-18	0.19634955	5.988661	0.49	1e-07	1.28e-07	0
0	0.9794215	3.6925165e-09	0	-2.7751266e-18	-4.3535496e-18	0.19634955	6.086836	0.49	1e-07	1.28e-07	0
0	0.9862635	0.046016913	0	-2.7760014e-18	-4.3537076e-18	0.19634955	6.1850104	0.49	1e-07	1.28e-07	0
0	0.9886657	0.09233485	0	-2.7760144e-18	-4.353727e-18	0.19634955	6.2831855	0.49	1e-07	1.28e-07	0
0	0.97756284	0.137806	0	-2.7739247e-18	-4.353397e-18	0.2945243	0	0.49	1e-07	1.28e-07	0
0	0.97561634	0.18420112	0	-2.7728364e-18	-4.3532493e-18	0.2945243	0.09817477	0.49	1e-07	1.28e-07	0
0	0.9692158	0.23037268	0	-2.7709014e-18	-4.3529697e-18	0.2945243	0.19634955	0.49	1e-07	1.28e-07	0
0	0.95833945	0.2760275	0	-2.7682176e-18	-4.3525797e-18	0.2945243	0.2945243	0.49	1e-07	1.28e-07	0
0	0.94297177	0.32081708	0	-2.7649358e-18	-4.352101e-18	0.2945243	0.3926991	0.49	1e-07	1.28e-07	0
0	0.92315465	0.36428884	0	-2.761226e-18	-4.3515586e-18	0.2945243	0.49087384	0.49	1e-07	1.28e-07	0
0	0.89904195	0.40590376	0	-2.7572362e-18	-4.3510006e-18	0.2945243	0.5890486	0.49	1e-07	1.28e-07	0
0	0.870903	0.44512635	0	-2.7530525e-18	-4.350518e-18	0.2945243	0.6872234	0.49	1e-07	1.28e-07	0
0	0.8390512	0.481526	0	-2.748711e-18	-4.3502264e-18	0.2945243	0.7853982	0.49	1e-07	1.28e-07	0
0	0.8037716	0.5147817	0	-2.7442306e-18	-4.3502024e-18	0.2945243	0.88357294	0.49	1e-07	1.28e-07	0
0	0.76533407	0.54460394	0	-2.7396487e-18	-4.350439e-18	0.2945243	0.9817477	0.49	1e-07	1.28e-07	0
0	0.7240844	0.57066333	0	-2.7350076e-18	-4.350843e-18	0.2945243	1.0799224	0.49	1e-07	1.28e-07	0
0	0.68049574	0.59262335	0	-2.7303195e-18	-4.35129e-18	0.2945243	1.1780972	0.49	1e-07	1.28e-07	0
0	0.63511467	0.6102229	0	-2.7255372e-18	-4.351687e-18	0.2945243	1.276272	0.49	1e-07	1.28e-07	0
0	0.58845234	0.6233178	0	-2.7205656e-18	-4.35199e-18	0.2945243	1.3744467	0.49	1e-07	1.28e-07	0
0	0.54092234	0.6318522	0	-2.7153078e-18	-4.352187e-18	0.2945243	1.4726216	0.49	1e-07	1.28e-07	0
0	0.49286118	0.6358003	0	-2.7097078e-18	-4.3522815e-18	0.2945243	1.5707964	0.49	1e-07	1.28e-07	0
0	0.44457078	0.63513386	0	-2.7037654e-18	-4.3522823e-18	0.2945243	1.6689711	0.49	1e-07	1.28e-07	0
0	0.3963473	0.6298088	0	-2.6975534e-18	-4.3522137e-18	0.2945243	1.7671459	0.49	1e-07	1.28e-07	0
0	0.34850594	0.6197684	0	-2.6912108e-18	-4.352103e-18	0.2945243	1.8653207	0.49	1e-07	1.28e-07	0
0	0.30142036	0.6049538	0	-2.6849406e-18	-4.351968e-18	0.2945243	1.9634954	0.49	1e-07	1.28e-07	0
0	0.2555825	0.5853559	0	-2.6789803e-18	-4.35181e-18	0.2945243	2.06167	0.49	1e-07	1.28e-07	0
0	0.21161415	0.5610893	0	-2.6735489e-18	-4.3516376e-18	0.2945243	2.1598449	0.49	1e-07	1.28e-07	0
0	0.1701706	0.5324202	0	-2.6687971e-18	-4.351508e-18	0.2945243	2.2580197	0.49	1e-07	1.28e-07	0
0	0.1318098	0.49970073	0	-2.6647944e-18	-4.3515135e-18	0.2945243	2.3561945	0.49	1e-07	1.28e-07	0
0	0.09695468	0.46327862	0	-2.6615754e-18	-4.3517223e-18	0.2945243	2.4543693	0.49	1e-07	1.28e-07	0
0	0.065980345	0.4235116	0	-2.6591636e-18	-4.3521057e-18	0.2945243	2.552544	0.49	1e-07	1.28e-07	0
0	0.039280184	0.38086268	0	-2.6575665e-18	-4.352559e-18	0.2945243	2.6507187	0.49	1e-07	1.28e-07	0
0	0.017210862	0.33593208	0	-2.6567263e-18	-4.3529722e-18	0.2945243	2.7488935	0.49	1e-07	1.28e-07	0
0	-5.2438104e-10	0.28936225	0	-2.6565083e-18	-4.3532965e-18	0.2945243	2.8470683	0.49	1e-07	1.28e-07	0
0	-0.0122759165	0.24170199	0	-2.6567337e-18	-4.3535285e-18	0.2945243	2.9452431	0.49	1e-07	1.28e-07	0
0	-0.019623946	0.19337517	0	-2.657236e-18	-4.3536745e-18	0.2945243	3.043418	0.49	1e-07	1.28e-07	0
0	-0.022066716	0.14472242	0	-2.6579038e-18	-4.353732e-18	0.2945243	3.1415927	0.49	1e-07	1.28e-07	0
0	-0.019615391	0.09606021	0	-2.6586944e-18	-4.353695e-18	0.2945243	3.2397673	0.49	1e-07	1.28e-07	0
0	-0.012265408	0.04770494	0	-2.6596406e-18	-4.3535653e-18	0.2945243	3.3379421	0.49	1e-07	1.28e-07	0
0	2.3597146e-09	-1.9227304e-09	0	-2.6608446e-18	-4.353343e-18	0.2945243	3.436117	0.49	1e-07	1.28e-07	0
0	0.017178074	-0.046629522	0	-2.6624593e-18	-4.35302e-18	0.2945243	3.5342917	0.49	1e-07	1.28e-07	0
0	0.03917946	-0.091633	0	-2.6646488e-18	-4.352606e-18	0.2945243	3.6324666	0.49	1e-07	1.28e-07	0
0	0.06576655	-0.13437493	0	-2.6675305e-18	-4.3521566e-18	0.2945243	3.7306414	0.49	1e-07	1.28e-07	0
0	0.09657609	-0.17426594	0	-2.6711414e-18	-4.351785e-18	0.2945243	3.828816	0.49	1e-07	1.28e-07	0
0	0.1312147	-0.21085496	0	-2.6754607e-18	-4.351597e-18	0.2945243	3.9269907	0.49	1e-07	1.28e-07	0
0	0.16930594	-0.24379298	0	-2.6804478e-18	-4.351619e-18	0.2945243	4.0251656	0.49	1e-07	1.28e-07	0
0	0.21042761	-0.27273962	0	-2.6860552e-18	-4.3517864e-18	0.2945243	4.12334	0.49	1e-07	1.28e-07	0
0	0.25403428	-0.2973536	0	-2.6921997e-18	-4.3520114e-18	0.2945243	4.221515	0.49	1e-07	1.28e-07	0
0	0.29948917	-0.31737524	0	-2.6987225e-18	-4.352238e-18	0.2945243	4.3196898	0.49	1e-07	1.28e-07	0
0	0.34619337	-0.3326911	0	-2.7054052e-18	-4.3524536e-18	0.2945243	4.417865	0.49	1e-07	1.28e-07	0
0	0.3936691	-0.34330466	0	-2.7120132e-18	-4.352649e-18	0.2945243	4.5160394	0.49	1e-07	1.28e-07	0
0	0.4415515	-0.34926808	0	-2.7183473e-18	-4.3528e-18	0.2945243	4.6142144	0.49	1e-07	1.28e-07	0
0	0.4895323	-0.35063303	0	-2.7242712e-18	-4.3528775e-18	0.2945243	4.712389	0.49	1e-07	1.28e-07	0
0	0.5373214	-0.3474363	0	-2.729717e-18	-4.352854e-18	0.2945243	4.8105636	0.49	1e-07	1.28e-07	0
0	0.5846221	-0.3397013	0	-2.7346833e-18	-4.35272e-18	0.2945243	4.9087386	0.49	1e-07	1.28e-07	0
0	0.63110846	-0.3274451	0	-2.7392285e-18	-4.3524755e-18	0.2945243	5.006913	0.49	1e-07	1.28e-07	0
0	0.67637825	-0.3107125	0	-2.7434516e-18	-4.3521314e-18	0.2945243	5.105088	0.49	1e-07	1.28e-07	0
0	0.7199372	-0.28962559	0	-2.7474523e-18	-4.3517277e-18	0.2945243	5.203263	0.49	1e-07	1.28e-07	0
0	0.7612478	-0.26442024	0	-2.7512898e-18	-4.3513497e-18	0.2945243	5.3014374	0.49	1e-07	1.28e-07	0
0	0.79983675	-0.23540917	0	-2.7549664e-18	-4.351112e-18	0.2945243	5.3996124	0.49	1e-07	1.28e-07	0
0	0.83534855	-0.20290695	0	-2.7584532e-18	-4.351106e-18	0.2945243	5.497787	0.49	1e-07	1.28e-07	0
0	0.86750335	-0.16719611	0	-2.7617249e-18	-4.3513423e-18	0.2945243	5.595962	0.49	1e-07	1.28e-07	0
0	0.89600945	-0.12858848	0	-2.7647728e-18	-4.351751e-18	0.2945243	5.6941366	0.49	1e-07	1.28e-07	0
0	0.92054814	-0.08750132	0	-2.7675745e-18	-4.352221e-18	0.2945243	5.7923117	0.49	1e-07	1.28e-07	0
0	0.9408393	-0.044459812	0	-2.7700537e-18	-4.35266e-18	0.2945243	5.8904862	0.49	1e-07	1.28e-07	0
0	0.9567155	2.0538258e-09	0	-2.7720777e-18	-4.3530173e-18	0.2945243	5.988661	0.49	1e-07	1.28e-07	0
0	0.96812266	0.045423854	0	-2.7734839e-18	-4.3532704e-18	0.2945243	6.086836	0.49	1e-07	1.28e-07	0
0	0.9750665	0.09145699	0	-2.77413e-18	-4.3534023e-18	0.2945243	6.1850104	0.49	1e-07	1.28e-07	0
0	0.97756284	0.13780624	0	-2.7739245e-18	-4.353397e-18	0.2945243	6.2831855	0.49	1e-07	1.28e-07	0
0	0.961996	0.18236484	0	-2.771208e-18	-4.352967e-18	0.3926991	0	0.49	1e-07	1.28e-07	0
0	0.96012944	0.22882313	0	-2.7699156e-18	-4.3527993e-18	0.3926991	0.09817477	0.49	1e-07	1.28e-07	0
0	0.953796	0.27507097	0	-2.7677916e-18	-4.352503e-18	0.3926991	0.19634955	0.49	1e-07	1.28e-07	0
0	0.9429719	0.32081664	0	-2.7649358e-18	-4.352101e-18	0.3926991	0.2945243	0.49	1e-07	1.28e-07	0
0	0.92764056	0.36570942	0	-2.7614988e-18	-4.351615e-18	0.3926991	0.3926991	0.49	1e-07	1.28e-07	0
0	0.9078423	0.4092965	0	-2.7576533e-18	-4.351069e-18	0.3926991	0.49087384	0.49	1e-07	1.28e-07	0
0	0.88372964	0.4510357	0	-2.7535492e-18	-4.350512e-18	0.3926991	0.5890486	0.49	1e-07	1.28e-07	0
0	0.85557103	0.49039045	0	-2.749275e-18	-4.3500353e-18	0.3926991	0.6872234	0.49	1e-07	1.28e-07	0
0	0.8236798	0.5269263	0	-2.7448673e-18	-4.349753e-18	0.3926991	0.7853982	0.49	1e-07	1.28e-07	0
0	0.7883401	0.5603222	0	-2.7403482e-18	-4.3497446e-18	0.3926991	0.88357294	0.49	1e-07	1.28e-07	0
0	0.74982387	0.59028256	0	-2.7357533e-18	-4.349999e-18	0.3926991	0.9817477	0.49	1e-07	1.28e-07	0
0	0.7084754	0.6164781	0	-2.7311295e-18	-4.3504233e-18	0.3926991	1.0799224	0.49	1e-07	1.28e-07	0
0	0.6647732	0.63856584	0	-2.7264888e-18	-4.350891e-18	0.3926991	1.1780972	0.49	1e-07	1.28e-07	0
0	0.61926824	0.6562821	0	-2.7217824e-18	-4.3513083e-18	0.3926991	1.276272	0.49	1e-07	1.28e-07	0
0	0.5724764	0.6694805	0	-2.7169155e-18	-4.351631e-18	0.3926991	1.3744467	0.49	1e-07	1.28e-07	0
0	0.5248141	0.67810535	0	-2.7117896e-18	-4.351848e-18	0.3926991	1.4726216	0.49	1e-07	1.28e-07	0
0	0.47661695	0.6821312	0	-2.7063462e-18	-4.3519622e-18	0.3926991	1.5707964	0.49	1e-07	1.28e-07	0
0	0.42819133	0.68152887	0	-2.7005865e-18	-4.3519813e-18	0.3926991	1.6689711	0.49	1e-07	1.28e-07	0
0	0.37983456	0.676256	0	-2.694579e-18	-4.3519287e-18	0.3926991	1.7671459	0.49	1e-07	1.28e-07	0
0	0.3318629	0.66625464	0	-2.6884652e-18	-4.3518315e-18	0.3926991	1.8653207	0.49	1e-07	1.28e-07	0
0	0.28465357	0.65146655	0	-2.6824462e-18	-4.351704e-18	0.3926991	1.9634954	0.49	1e-07	1.28e-07	0
0	0.23870336	0.6318842	0	-2.6767583e-18	-4.351549e-18	0.3926991	2.06167	0.49	1e-07	1.28e-07	0
0	0.19463764	0.6076248	0	-2.6716172e-18	-4.3513737e-18	0.3926991	2.1598449	0.49	1e-07	1.28e-07	0
0	0.15311627	0.5789591	0	-2.6671676e-18	-4.3512364e-18	0.3926991	2.2580197	0.49	1e-07	1.28e-07	0
0	0.114695385	0.54624104	0	-2.6634775e-18	-4.3512347e-18	0.3926991	2.3561945	0.49	1e-07	1.28e-07	0
0	0.0797966	0.50982046	0	-2.6605729e-18	-4.3514337e-18	0.3926991	2.4543693	0.49	1e-07	1.28e-07	0
0	0.048793167	0.4700559	0	-2.6584766e-18	-4.3518084e-18	0.3926991	2.552544	0.49	1e-07	1.28e-07	0
0	0.022075431	0.42741045	0	-2.65719e-18	-4.352251e-18	0.3926991	2.6507187	0.49	1e-07	1.28e-07	0
0	-1.0487621e-09	0.3824895	0	-2.6566529e-18	-4.3526546e-18	0.3926991	2.7488935	0.49	1e-07	1.28e-07	0
0	-0.017210823	0.3359319	0	-2.656726e-18	-4.352972e-18	0.3926991	2.8470683	0.49	1e-07	1.28e-07	0
0	-0.029483328	0.28828588	0	-2.6572288e-18	-4.353201e-18	0.3926991	2.9452431	0.49	1e-07	1.28e-07	0
0	-0.03682521	0.23997118	0	-2.6579923e-18	-4.3533457e-18	0.3926991	3.043418	0.49	1e-07	1.28e-07	0
0	-0.039260767	0.19133016	0	-2.6589043e-18	-4.3534036e-18	0.3926991	3.1415927	0.49	1e-07	1.28e-07	0
0	-0.036802728	0.14267829	0	-2.6599202e-18	-4.353368e-18	0.3926991	3.2397673	0.49	1e-07	1.28e-07	0
0	-0.029446974	0.09433039	0	-2.6610719e-18	-4.353241e-18	0.3926991	3.3379421	0.49	1e-07	1.28e-07	0
0	-0.017177993	0.046629433	0	-2.6624589e-18	-4.3530206e-18	0.3926991	3.436117	0.49	1e-07	1.28e-07	0
0	-4.457239e-09	-2.2286195e-09	0	-2.6642334e-18	-4.3527017e-18	0.3926991	3.5342917	0.49	1e-07	1.28e-07	0
0	0.021996828	-0.045009162	0	-2.6665559e-18	-4.352291e-18	0.3926991	3.6324666	0.49	1e-07	1.28e-07	0
0	0.04857429	-0.08776491	0	-2.6695408e-18	-4.3518477e-18	0.3926991	3.7306414	0.49	1e-07	1.28e-07	0
0	0.079369806	-0.12768018	0	-2.6732254e-18	-4.3514845e-18	0.3926991	3.828816	0.49	1e-07	1.28e-07	0
0	0.11399078	-0.16430642	0	-2.6775865e-18	-4.351307e-18	0.3926991	3.9269907	0.49	1e-07	1.28e-07	0
0	0.15206185	-0.19729596	0	-2.6825823e-18	-4.3513406e-18	0.3926991	4.0251656	0.49	1e-07	1.28e-07	0
0	0.19316365	-0.22631012	0	-2.6881658e-18	-4.351522e-18	0.3926991	4.12334	0.49	1e-07	1.28e-07	0
0	0.23675418	-0.25100896	0	-2.6942534e-18	-4.351762e-18	0.3926991	4.221515	0.49	1e-07	1.28e-07	0
0	0.28220075	-0.27113184	0	-2.70069e-18	-4.3520044e-18	0.3926991	4.3196898	0.49	1e-07	1.28e-07	0
0	0.32890618	-0.2865623	0	-2.7072569e-18	-4.352233e-18	0.3926991	4.417865	0.49	1e-07	1.28e-07	0
0	0.37639308	-0.2973017	0	-2.7137248e-18	-4.3524395e-18	0.3926991	4.5160394	0.49	1e-07	1.28e-07	0
0	0.4242969	-0.3033997	0	-2.7198964e-18	-4.352599e-18	0.3926991	4.6142144	0.49	1e-07	1.28e-07	0
0	0.47230965	-0.3049062	0	-2.7256358e-18	-4.352681e-18	0.3926991	4.712389	0.49	1e-07	1.28e-07	0
0	0.52014154	-0.30185592	0	-2.7308766e-18	-4.3526604e-18	0.3926991	4.8105636	0.49	1e-07	1.28e-07	0
0	0.5674967	-0.29427046	0	-2.735619e-18	-4.3525276e-18	0.3926991	4.9087386	0.49	1e-07	1.28e-07	0