# t (s)	mx ()	my ()	mz ()	E_total (J)	E_Zeeman (J)	island1_magAngle (rad)	island2_magAngle (rad)	roundness ()	size (m)	islands_distance (m)	island1_angle (rad)	island2_angle (rad)	Cell_size (m)
0	0.9953375	-3.1578012e-10	0	-3.628071e-18	-5.1853103e-18	0	0	0.66	1e-07	1.28e-07	0	0	1e-09
0	0.99354136	0.042152755	0	-3.6265e-18	-5.1853314e-18	0	0.09817477	0.66	1e-07	1.28e-07	0	0	1e-09
0	0.988115	0.08431403	0	-3.6218707e-18	-5.1854476e-18	0	0.19634955	0.66	1e-07	1.28e-07	0	0	1e-09
0	0.97891533	0.12656455	0	-3.6144426e-18	-5.1858058e-18	0	0.2945243	0.66	1e-07	1.28e-07	0	0	1e-09
0	0.96567535	0.16896418	0	-3.6046823e-18	-5.186622e-18	0	0.3926991	0.66	1e-07	1.28e-07	0	0	1e-09
0	0.94793004	0.21163183	0	-3.5933247e-18	-5.1881426e-18	0	0.49087384	0.66	1e-07	1.28e-07	0	0	1e-09
0	0.924964	0.25462434	0	-3.5814274e-18	-5.190483e-18	0	0.5890486	0.66	1e-07	1.28e-07	0	0	1e-09
0	0.89601827	0.29747614	0	-3.570375e-18	-5.1932632e-18	0	0.6872234	0.66	1e-07	1.28e-07	0	0	1e-09
0	0.86078715	0.3388756	0	-3.5616486e-18	-5.195428e-18	0	0.7853982	0.66	1e-07	1.28e-07	0	0	1e-09
0	0.8202886	0.3766113	0	-3.556212e-18	-5.195838e-18	0	0.88357294	0.66	1e-07	1.28e-07	0	0	1e-09
0	0.7769289	0.40861252	0	-3.5538942e-18	-5.1944382e-18	0	0.9817477	0.66	1e-07	1.28e-07	0	0	1e-09
0	0.7326301	0.43444234	0	-3.5535543e-18	-5.1921895e-18	0	1.0799224	0.66	1e-07	1.28e-07	0	0	1e-09
0	0.6883269	0.4546452	0	-3.5537855e-18	-5.1899313e-18	0	1.1780972	0.66	1e-07	1.28e-07	0	0	1e-09
0	0.6442045	0.46995646	0	-3.5533917e-18	-5.1879986e-18	0	1.276272	0.66	1e-07	1.28e-07	0	0	1e-09
0	0.6001987	0.48090458	0	-3.5515095e-18	-5.1864195e-18	0	1.3744467	0.66	1e-07	1.28e-07	0	0	1e-09
0	0.556272	0.48780245	0	-3.547578e-18	-5.18512e-18	0	1.4726216	0.66	1e-07	1.28e-07	0	0	1e-09
0	0.5123313	0.4908931	0	-3.541283e-18	-5.1840414e-18	0	1.5707964	0.66	1e-07	1.28e-07	0	0	1e-09
0	0.46830735	0.4902293	0	-3.5325153e-18	-5.1831902e-18	0	1.6689711	0.66	1e-07	1.28e-07	0	0	1e-09
0	0.42416802	0.48576322	0	-3.5213525e-18	-5.1826613e-18	0	1.7671459	0.66	1e-07	1.28e-07	0	0	1e-09
0	0.37984762	0.47734734	0	-3.508061e-18	-5.182643e-18	0	1.8653207	0.66	1e-07	1.28e-07	0	0	1e-09
0	0.33528134	0.46469358	0	-3.4931353e-18	-5.1833912e-18	0	1.9634954	0.66	1e-07	1.28e-07	0	0	1e-09
0	0.2903184	0.44730532	0	-3.4773635e-18	-5.1851982e-18	0	2.06167	0.66	1e-07	1.28e-07	0	0	1e-09
0	0.24484695	0.4243847	0	-3.4618958e-18	-5.1882063e-18	0	2.1598449	0.66	1e-07	1.28e-07	0	0	1e-09
0	0.1993271	0.39503047	0	-3.4482918e-18	-5.1919224e-18	0	2.2580197	0.66	1e-07	1.28e-07	0	0	1e-09
0	0.15505023	0.3586639	0	-3.438289e-18	-5.195004e-18	0	2.3561945	0.66	1e-07	1.28e-07	0	0	1e-09
0	0.114829	0.3165198	0	-3.433066e-18	-5.195799e-18	0	2.4543693	0.66	1e-07	1.28e-07	0	0	1e-09
0	0.08114492	0.27142653	0	-3.4324327e-18	-5.1942583e-18	0	2.552544	0.66	1e-07	1.28e-07	0	0	1e-09
0	0.054392535	0.22556973	0	-3.435021e-18	-5.191747e-18	0	2.6507187	0.66	1e-07	1.28e-07	0	0	1e-09
0	0.033870175	0.17995365	0	-3.4392007e-18	-5.1894036e-18	0	2.7488935	0.66	1e-07	1.28e-07	0	0	1e-09
0	0.01868974	0.13471922	0	-3.443636e-18	-5.187659e-18	0	2.8470683	0.66	1e-07	1.28e-07	0	0	1e-09
0	0.008201746	0.08971096	0	-3.4473844e-18	-5.1865275e-18	0	2.9452431	0.66	1e-07	1.28e-07	0	0	1e-09
0	0.002035735	0.04482885	0	-3.449851e-18	-5.1859125e-18	0	3.043418	0.66	1e-07	1.28e-07	0	0	1e-09
0	-8.0089163e-10	-6.2676634e-08	0	-3.4507084e-18	-5.1857235e-18	0	3.1415927	0.66	1e-07	1.28e-07	0	0	1e-09
0	0.002035716	-0.0448285	0	-3.4498513e-18	-5.1859133e-18	0	3.2397673	0.66	1e-07	1.28e-07	0	0	1e-09
0	0.008201936	-0.089711696	0	-3.4473848e-18	-5.1865275e-18	0	3.3379421	0.66	1e-07	1.28e-07	0	0	1e-09
0	0.01869518	-0.13474025	0	-3.4436354e-18	-5.1876616e-18	0	3.436117	0.66	1e-07	1.28e-07	0	0	1e-09
0	0.03388369	-0.17999214	0	-3.4392013e-18	-5.18941e-18	0	3.5342917	0.66	1e-07	1.28e-07	0	0	1e-09
0	0.054391827	-0.22556892	0	-3.435021e-18	-5.1917474e-18	0	3.6324666	0.66	1e-07	1.28e-07	0	0	1e-09
0	0.081145406	-0.27142715	0	-3.4324325e-18	-5.194258e-18	0	3.7306414	0.66	1e-07	1.28e-07	0	0	1e-09
0	0.11482962	-0.31652048	0	-3.4330667e-18	-5.195799e-18	0	3.828816	0.66	1e-07	1.28e-07	0	0	1e-09
0	0.15504864	-0.3586591	0	-3.438289e-18	-5.195004e-18	0	3.9269907	0.66	1e-07	1.28e-07	0	0	1e-09
0	0.19932637	-0.3950301	0	-3.4482918e-18	-5.1919224e-18	0	4.0251656	0.66	1e-07	1.28e-07	0	0	1e-09
0	0.24484538	-0.42438313	0	-3.4618956e-18	-5.1882063e-18	0	4.12334	0.66	1e-07	1.28e-07	0	0	1e-09
0	0.29032093	-0.44730547	0	-3.477363e-18	-5.185197e-18	0	4.221515	0.66	1e-07	1.28e-07	0	0	1e-09
0	0.33528167	-0.4646928	0	-3.493136e-18	-5.1833912e-18	0	4.3196898	0.66	1e-07	1.28e-07	0	0	1e-09
0	0.3798475	-0.47734708	0	-3.508061e-18	-5.1826435e-18	0	4.417865	0.66	1e-07	1.28e-07	0	0	1e-09
0	0.4241669	-0.48576352	0	-3.521353e-18	-5.1826625e-18	0	4.5160394	0.66	1e-07	1.28e-07	0	0	1e-09
0	0.4683102	-0.49022865	0	-3.532516e-18	-5.1831902e-18	0	4.6142144	0.66	1e-07	1.28e-07	0	0	1e-09
0	0.51232165	-0.49089772	0	-3.5412826e-18	-5.1840426e-18	0	4.712389	0.66	1e-07	1.28e-07	0	0	1e-09
0	0.5562714	-0.48780304	0	-3.5475775e-18	-5.1851205e-18	0	4.8105636	0.66	1e-07	1.28e-07	0	0	1e-09
0	0.60019904	-0.48090294	0	-3.5515095e-18	-5.1864195e-18	0	4.9087386	0.66	1e-07	1.28e-07	0	0	1e-09
0	0.64420533	-0.46995714	0	-3.5533917e-18	-5.187999e-18	0	5.006913	0.66	1e-07	1.28e-07	0	0	1e-09
0	0.6883288	-0.45464495	0	-3.5537846e-18	-5.18993e-18	0	5.105088	0.66	1e-07	1.28e-07	0	0	1e-09
0	0.7326297	-0.43444255	0	-3.5535543e-18	-5.1921895e-18	0	5.203263	0.66	1e-07	1.28e-07	0	0	1e-09
0	0.7769293	-0.4086129	0	-3.553895e-18	-5.1944382e-18	0	5.3014374	0.66	1e-07	1.28e-07	0	0	1e-09
0	0.8202882	-0.37661138	0	-3.556212e-18	-5.1958382e-18	0	5.3996124	0.66	1e-07	1.28e-07	0	0	1e-09
0	0.86078745	-0.33887595	0	-3.5616486e-18	-5.1954288e-18	0	5.497787	0.66	1e-07	1.28e-07	0	0	1e-09
0	0.89605033	-0.29743177	0	-3.570375e-18	-5.193249e-18	0	5.595962	0.66	1e-07	1.28e-07	0	0	1e-09
0	0.9249652	-0.2546218	0	-3.581428e-18	-5.190483e-18	0	5.6941366	0.66	1e-07	1.28e-07	0	0	1e-09
0	0.9479297	-0.21163271	0	-3.5933247e-18	-5.1881426e-18	0	5.7923117	0.66	1e-07	1.28e-07	0	0	1e-09
0	0.9656633	-0.16899697	0	-3.6046823e-18	-5.186632e-18	0	5.8904862	0.66	1e-07	1.28e-07	0	0	1e-09
0	0.97891635	-0.12656072	0	-3.6144426e-18	-5.185805e-18	0	5.988661	0.66	1e-07	1.28e-07	0	0	1e-09
0	0.9881147	-0.084315404	0	-3.6218715e-18	-5.185448e-18	0	6.086836	0.66	1e-07	1.28e-07	0	0	1e-09
0	0.99354106	-0.04215667	0	-3.6265e-18	-5.185332e-18	0	6.1850104	0.66	1e-07	1.28e-07	0	0	1e-09
0	0.9953376	6.2240724e-10	0	-3.6280704e-18	-5.1853115e-18	0	6.2831855	0.66	1e-07	1.28e-07	0	0	1e-09
0	0.99354196	0.042144522	0	-3.6265e-18	-5.1853306e-18	0.09817477	0	0.66	1e-07	1.28e-07	0	0	1e-09
0	0.99184215	0.08430091	0	-3.624637e-18	-5.185266e-18	0.09817477	0.09817477	0.66	1e-07	1.28e-07	0	0	1e-09
0	0.98650885	0.12649484	0	-3.6197188e-18	-5.1853e-18	0.09817477	0.19634955	0.66	1e-07	1.28e-07	0	0	1e-09
0	0.9774014	0.16878316	0	-3.612002e-18	-5.185581e-18	0.09817477	0.2945243	0.66	1e-07	1.28e-07	0	0	1e-09
0	0.96425486	0.21122493	0	-3.601955e-18	-5.186328e-18	0.09817477	0.3926991	0.66	1e-07	1.28e-07	0	0	1e-09
0	0.9465991	0.25396386	0	-3.5903154e-18	-5.1877972e-18	0.09817477	0.49087384	0.66	1e-07	1.28e-07	0	0	1e-09
0	0.9237195	0.29705435	0	-3.5781377e-18	-5.1901096e-18	0.09817477	0.5890486	0.66	1e-07	1.28e-07	0	0	1e-09
0	0.8948863	0.33997893	0	-3.566811e-18	-5.192871e-18	0.09817477	0.6872234	0.66	1e-07	1.28e-07	0	0	1e-09
0	0.8596756	0.38158903	0	-3.5578283e-18	-5.1950747e-18	0.09817477	0.7853982	0.66	1e-07	1.28e-07	0	0	1e-09
0	0.8191871	0.41953054	0	-3.5521687e-18	-5.1955144e-18	0.09817477	0.88357294	0.66	1e-07	1.28e-07	0	0	1e-09
0	0.7758036	0.45173734	0	-3.54967e-18	-5.1941243e-18	0.09817477	0.9817477	0.66	1e-07	1.28e-07	0	0	1e-09
0	0.73149264	0.47776005	0	-3.549191e-18	-5.1918752e-18	0.09817477	1.0799224	0.66	1e-07	1.28e-07	0	0	1e-09
0	0.6871299	0.49811703	0	-3.549319e-18	-5.189601e-18	0.09817477	1.1780972	0.66	1e-07	1.28e-07	0	0	1e-09
0	0.642965	0.5135636	0	-3.5488534e-18	-5.1876616e-18	0.09817477	1.276272	0.66	1e-07	1.28e-07	0	0	1e-09
0	0.59894055	0.52462214	0	-3.546923e-18	-5.1860804e-18	0.09817477	1.3744467	0.66	1e-07	1.28e-07	0	0	1e-09
0	0.55497235	0.53166074	0	-3.542967e-18	-5.184787e-18	0.09817477	1.4726216	0.66	1e-07	1.28e-07	0	0	1e-09
0	0.5109794	0.5348742	0	-3.5366715e-18	-5.1837254e-18	0.09817477	1.5707964	0.66	1e-07	1.28e-07	0	0	1e-09
0	0.4669067	0.5343217	0	-3.527927e-18	-5.1829007e-18	0.09817477	1.6689711	0.66	1e-07	1.28e-07	0	0	1e-09
0	0.42271405	0.52996194	0	-3.516809e-18	-5.182407e-18	0.09817477	1.7671459	0.66	1e-07	1.28e-07	0	0	1e-09
0	0.3783303	0.52164763	0	-3.5035864e-18	-5.1824338e-18	0.09817477	1.8653207	0.66	1e-07	1.28e-07	0	0	1e-09
0	0.3336588	0.5090791	0	-3.488757e-18	-5.183249e-18	0.09817477	1.9634954	0.66	1e-07	1.28e-07	0	0	1e-09
0	0.28863084	0.49176872	0	-3.4731093e-18	-5.185111e-18	0.09817477	2.06167	0.66	1e-07	1.28e-07	0	0	1e-09
0	0.2431065	0.46892625	0	-3.4578023e-18	-5.1881632e-18	0.09817477	2.1598449	0.66	1e-07	1.28e-07	0	0	1e-09
0	0.19748719	0.43961355	0	-3.4444034e-18	-5.191932e-18	0.09817477	2.2580197	0.66	1e-07	1.28e-07	0	0	1e-09
0	0.15312073	0.4032769	0	-3.434655e-18	-5.1950342e-18	0.09817477	2.3561945	0.66	1e-07	1.28e-07	0	0	1e-09
0	0.11283612	0.3611648	0	-3.4297373e-18	-5.1958163e-18	0.09817477	2.4543693	0.66	1e-07	1.28e-07	0	0	1e-09
0	0.07912252	0.31608775	0	-3.4294412e-18	-5.1942492e-18	0.09817477	2.552544	0.66	1e-07	1.28e-07	0	0	1e-09
0	0.052376505	0.2703118	0	-3.4323826e-18	-5.19174e-18	0.09817477	2.6507187	0.66	1e-07	1.28e-07	0	0	1e-09
0	0.031846818	0.22473362	0	-3.4369222e-18	-5.1894148e-18	0.09817477	2.7488935	0.66	1e-07	1.28e-07	0	0	1e-09
0	0.01665911	0.17952554	0	-3.4417147e-18	-5.187703e-18	0.09817477	2.8470683	0.66	1e-07	1.28e-07	0	0	1e-09
0	0.0061656064	0.13450763	0	-3.445821e-18	-5.186614e-18	0.09817477	2.9452431	0.66	1e-07	1.28e-07	0	0	1e-09
0	1.2951562e-09	0.0896444	0	-3.4486425e-18	-5.186051e-18	0.09817477	3.043418	0.66	1e-07	1.28e-07	0	0	1e-09
0	-0.002036458	0.04483745	0	-3.4498519e-18	-5.1859137e-18	0.09817477	3.1415927	0.66	1e-07	1.28e-07	0	0	1e-09
0	2.1967314e-10	3.3523037e-10	0	-3.4493436e-18	-5.1861594e-18	0.09817477	3.2397673	0.66	1e-07	1.28e-07	0	0	1e-09
0	0.006165428	-0.04488824	0	-3.4472204e-18	-5.1868216e-18	0.09817477	3.3379421	0.66	1e-07	1.28e-07	0	0	1e-09
0	0.016656615	-0.089926064	0	-3.4438097e-18	-5.1879957e-18	0.09817477	3.436117	0.66	1e-07	1.28e-07	0	0	1e-09
0	0.03184581	-0.13521117	0	-3.4397065e-18	-5.189773e-18	0.09817477	3.5342917	0.66	1e-07	1.28e-07	0	0	1e-09
0	0.052352827	-0.18082945	0	-3.4358483e-18	-5.1921238e-18	0.09817477	3.6324666	0.66	1e-07	1.28e-07	0	0	1e-09
0	0.07909425	-0.22671306	0	-3.4335674e-18	-5.1946264e-18	0.09817477	3.7306414	0.66	1e-07	1.28e-07	0	0	1e-09
0	0.11274436	-0.27182797	0	-3.4344812e-18	-5.1961493e-18	0.09817477	3.828816	0.66	1e-07	1.28e-07	0	0	1e-09
0	0.15290536	-0.31400922	0	-3.4399414e-18	-5.1953485e-18	0.09817477	3.9269907	0.66	1e-07	1.28e-07	0	0	1e-09
0	0.19710548	-0.3504172	0	-3.4501292e-18	-5.192289e-18	0.09817477	4.0251656	0.66	1e-07	1.28e-07	0	0	1e-09
0	0.24255367	-0.3798349	0	-3.4638682e-18	-5.188613e-18	0.09817477	4.12334	0.66	1e-07	1.28e-07	0	0	1e-09
0	0.2879599	-0.4028377	0	-3.4794306e-18	-5.1856515e-18	0.09817477	4.221515	0.66	1e-07	1.28e-07	0	0	1e-09
0	0.3328652	-0.42031717	0	-3.4952645e-18	-5.1838863e-18	0.09817477	4.3196898	0.66	1e-07	1.28e-07	0	0	1e-09
0	0.37738413	-0.43307114	0	-3.510223e-18	-5.1831712e-18	0.09817477	4.417865	0.66	1e-07	1.28e-07	0	0	1e-09
0	0.4216628	-0.44159836	0	-3.5235214e-18	-5.183211e-18	0.09817477	4.5160394	0.66	1e-07	1.28e-07	0	0	1e-09
0	0.46577936	-0.44618177	0	-3.534669e-18	-5.1837502e-18	0.09817477	4.6142144	0.66	1e-07	1.28e-07	0	0	1e-09
0	0.5097676	-0.4469658	0	-3.543398e-18	-5.1846055e-18	0.09817477	4.712389	0.66	1e-07	1.28e-07	0	0	1e-09
0	0.5536769	-0.4439934	0	-3.549632e-18	-5.185678e-18	0.09817477	4.8105636	0.66	1e-07	1.28e-07	0	0	1e-09
0	0.59756523	-0.4371928	0	-3.5534815e-18	-5.1869626e-18	0.09817477	4.9087386	0.66	1e-07	1.28e-07	0	0	1e-09
0	0.6416199	-0.42637742	0	-3.5552574e-18	-5.188521e-18	0.09817477	5.006913	0.66	1e-07	1.28e-07	0	0	1e-09
0	0.6857187	-0.4112449	0	-3.5555176e-18	-5.1904264e-18	0.09817477	5.105088	0.66	1e-07	1.28e-07	0	0	1e-09
0	0.72998184	-0.3912317	0	-3.555125e-18	-5.1926565e-18	0.09817477	5.203263	0.66	1e-07	1.28e-07	0	0	1e-09
0	0.7742731	-0.3655858	0	-3.5552665e-18	-5.1948845e-18	0.09817477	5.3014374	0.66	1e-07	1.28e-07	0	0	1e-09
0	0.8176412	-0.33379576	0	-3.5573456e-18	-5.1962866e-18	0.09817477	5.3996124	0.66	1e-07	1.28e-07	0	0	1e-09
0	0.85818696	-0.29626393	0	-3.562504e-18	-5.1958994e-18	0.09817477	5.497787	0.66	1e-07	1.28e-07	0	0	1e-09
0	0.8935379	-0.25498226	0	-3.5709275e-18	-5.1937326e-18	0.09817477	5.595962	0.66	1e-07	1.28e-07	0	0	1e-09
0	0.92255425	-0.21228142	0	-3.581669e-18	-5.1909533e-18	0.09817477	5.6941366	0.66	1e-07	1.28e-07	0	0	1e-09
0	0.9456295	-0.16937128	0	-3.5932552e-18	-5.1885677e-18	0.09817477	5.7923117	0.66	1e-07	1.28e-07	0	0	1e-09
0	0.96347	-0.12678155	0	-3.6043055e-18	-5.186992e-18	0.09817477	5.8904862	0.66	1e-07	1.28e-07	0	0	1e-09
0	0.97682446	-0.08439096	0	-3.613762e-18	-5.186089e-18	0.09817477	5.988661	0.66	1e-07	1.28e-07	0	0	1e-09
0	0.98612446	-0.042163398	0	-3.6208917e-18	-5.1856478e-18	0.09817477	6.086836	0.66	1e-07	1.28e-07	0	0	1e-09
0	0.9916507	1.4324519e-09	0	-3.6252245e-18	-5.185442e-18	0.09817477	6.1850104	0.66	1e-07	1.28e-07	0	0	1e-09
0	0.99354154	0.042151038	0	-3.6265e-18	-5.1853314e-18	0.09817477	6.2831855	0.66	1e-07	1.28e-07	0	0	1e-09
0	0.9881149	0.08431549	0	-3.6218715e-18	-5.1854484e-18	0.19634955	0	0.66	1e-07	1.28e-07	0	0	1e-09
0	0.98650914	0.12649153	0	-3.6197188e-18	-5.1853004e-18	0.19634955	0.09817477	0.66	1e-07	1.28e-07	0	0	1e-09
0	0.9812654	0.16872542	0	-3.614517e-18	-5.1852574e-18	0.19634955	0.19634955	0.66	1e-07	1.28e-07	0	0	1e-09
0	0.9722435	0.21106517	0	-3.6065244e-18	-5.1854704e-18	0.19634955	0.2945243	0.66	1e-07	1.28e-07	0	0	1e-09
0	0.95918006	0.25355998	0	-3.5962107e-18	-5.1861594e-18	0.19634955	0.3926991	0.66	1e-07	1.28e-07	0	0	1e-09
0	0.9416	0.2963818	0	-3.584309e-18	-5.1875896e-18	0.19634955	0.49087384	0.66	1e-07	1.28e-07	0	0	1e-09
0	0.9187865	0.33958668	0	-3.571882e-18	-5.1898883e-18	0.19634955	0.5890486	0.66	1e-07	1.28e-07	0	0	1e-09
0	0.89000136	0.3826531	0	-3.560321e-18	-5.1926648e-18	0.19634955	0.6872234	0.66	1e-07	1.28e-07	0	0	1e-09
0	0.85480815	0.42444268	0	-3.55113e-18	-5.1949064e-18	0.19634955	0.7853982	0.66	1e-07	1.28e-07	0	0	1e-09
0	0.8142951	0.46258488	0	-3.5453007e-18	-5.195384e-18	0.19634955	0.88357294	0.66	1e-07	1.28e-07	0	0	1e-09
0	0.77085495	0.49499673	0	-3.542681e-18	-5.1940168e-18	0.19634955	0.9817477	0.66	1e-07	1.28e-07	0	0	1e-09
0	0.7264596	0.5211792	0	-3.5421235e-18	-5.1917664e-18	0.19634955	1.0799224	0.66	1e-07	1.28e-07	0	0	1e-09
0	0.6820547	0.5417082	0	-3.542209e-18	-5.189507e-18	0.19634955	1.1780972	0.66	1e-07	1.28e-07	0	0	1e-09
0	0.6378316	0.55727917	0	-3.541729e-18	-5.187577e-18	0.19634955	1.276272	0.66	1e-07	1.28e-07	0	0	1e-09
0	0.5937534	0.5684646	0	-3.5398123e-18	-5.186017e-18	0.19634955	1.3744467	0.66	1e-07	1.28e-07	0	0	1e-09
0	0.5497202	0.575631	0	-3.535893e-18	-5.184757e-18	0.19634955	1.4726216	0.66	1e-07	1.28e-07	0	0	1e-09
0	0.5056606	0.57895046	0	-3.5296574e-18	-5.1837333e-18	0.19634955	1.5707964	0.66	1e-07	1.28e-07	0	0	1e-09
0	0.46150526	0.57851106	0	-3.520996e-18	-5.1829603e-18	0.19634955	1.6689711	0.66	1e-07	1.28e-07	0	0	1e-09
0	0.41724694	0.57423913	0	-3.5099846e-18	-5.1825186e-18	0.19634955	1.7671459	0.66	1e-07	1.28e-07	0	0	1e-09
0	0.3727738	0.5660192	0	-3.4968953e-18	-5.1826145e-18	0.19634955	1.8653207	0.66	1e-07	1.28e-07	0	0	1e-09
0	0.32802477	0.55353546	0	-3.4822257e-18	-5.183498e-18	0.19634955	1.9634954	0.66	1e-07	1.28e-07	0	0	1e-09
0	0.28292164	0.5362919	0	-3.4667683e-18	-5.1854236e-18	0.19634955	2.06167	0.66	1e-07	1.28e-07	0	0	1e-09
0	0.23724876	0.51349473	0	-3.4516903e-18	-5.1885677e-18	0.19634955	2.1598449	0.66	1e-07	1.28e-07	0	0	1e-09
0	0.19152983	0.4842167	0	-3.4385652e-18	-5.1923835e-18	0.19634955	2.2580197	0.66	1e-07	1.28e-07	0	0	1e-09
0	0.14705913	0.44789284	0	-3.4291432e-18	-5.1955003e-18	0.19634955	2.3561945	0.66	1e-07	1.28e-07	0	0	1e-09
0	0.1067082	0.4058101	0	-3.4245968e-18	-5.1962576e-18	0.19634955	2.4543693	0.66	1e-07	1.28e-07	0	0	1e-09
0	0.07296176	0.36075974	0	-3.4246981e-18	-5.194659e-18	0.19634955	2.552544	0.66	1e-07	1.28e-07	0	0	1e-09
0	0.04619728	0.31498328	0	-3.4280408e-18	-5.1921345e-18	0.19634955	2.6507187	0.66	1e-07	1.28e-07	0	0	1e-09
0	0.025672749	0.26944962	0	-3.432974e-18	-5.189829e-18	0.19634955	2.7488935	0.66	1e-07	1.28e-07	0	0	1e-09
0	0.010488482	0.2242958	0	-3.4381528e-18	-5.18816e-18	0.19634955	2.8470683	0.66	1e-07	1.28e-07	0	0	1e-09
0	1.4187224e-10	0.17931888	0	-3.4426343e-18	-5.1871206e-18	0.19634955	2.9452431	0.66	1e-07	1.28e-07	0	0	1e-09
0	-0.0061649666	0.1345037	0	-3.4458212e-18	-5.186614e-18	0.19634955	3.043418	0.66	1e-07	1.28e-07	0	0	1e-09
0	-0.0082010925	0.089706466	0	-3.4473856e-18	-5.1865275e-18	0.19634955	3.1415927	0.66	1e-07	1.28e-07	0	0	1e-09
0	-0.0061661317	0.044891007	0	-3.4472202e-18	-5.1868224e-18	0.19634955	3.2397673	0.66	1e-07	1.28e-07	0	0	1e-09
0	2.6086186e-10	2.7230315e-10	0	-3.4454308e-18	-5.1875267e-18	0.19634955	3.3379421	0.66	1e-07	1.28e-07	0	0	1e-09
0	0.010489397	-0.045041114	0	-3.4423378e-18	-5.188733e-18	0.19634955	3.436117	0.66	1e-07	1.28e-07	0	0	1e-09
0	0.025681226	-0.09035246	0	-3.4385385e-18	-5.1905335e-18	0.19634955	3.5342917	0.66	1e-07	1.28e-07	0	0	1e-09
0	0.04618389	-0.13599695	0	-3.4349643e-18	-5.1928864e-18	0.19634955	3.6324666	0.66	1e-07	1.28e-07	0	0	1e-09
0	0.072906926	-0.18189459	0	-3.4329414e-18	-5.195378e-18	0.19634955	3.7306414	0.66	1e-07	1.28e-07	0	0	1e-09
0	0.10652654	-0.22703946	0	-3.4340765e-18	-5.1968834e-18	0.19634955	3.828816	0.66	1e-07	1.28e-07	0	0	1e-09
0	0.14663301	-0.2692629	0	-3.4397077e-18	-5.196083e-18	0.19634955	3.9269907	0.66	1e-07	1.28e-07	0	0	1e-09
0	0.19076598	-0.30572426	0	-3.4500117e-18	-5.1930486e-18	0.19634955	4.0251656	0.66	1e-07	1.28e-07	0	0	1e-09
0	0.23614785	-0.3352141	0	-3.4638172e-18	-5.1894123e-18	0.19634955	4.12334	0.66	1e-07	1.28e-07	0	0	1e-09
0	0.28153834	-0.3583391	0	-3.4794058e-18	-5.1864696e-18	0.19634955	4.221515	0.66	1e-07	1.28e-07	0	0	1e-09
0	0.32636005	-0.37589338	0	-3.4952355e-18	-5.1847482e-18	0.19634955	4.3196898	0.66	1e-07	1.28e-07	0	0	1e-09
0	0.3708901	-0.38877603	0	-3.510163e-18	-5.1840302e-18	0.19634955	4.417865	0.66	1e-07	1.28e-07	0	0	1e-09
0	0.41514212	-0.39742205	0	-3.5234073e-18	-5.1840737e-18	0.19634955	4.5160394	0.66	1e-07	1.28e-07	0	0	1e-09
0	0.45923883	-0.4021323	0	-3.5344774e-18	-5.1846043e-18	0.19634955	4.6142144	0.66	1e-07	1.28e-07	0	0	1e-09
0	0.50321734	-0.40304324	0	-3.5431074e-18	-5.1854398e-18	0.19634955	4.712389	0.66	1e-07	1.28e-07	0	0	1e-09
0	0.54713506	-0.40019774	0	-3.5492215e-18	-5.1864832e-18	0.19634955	4.8105636	0.66	1e-07	1.28e-07	0	0	1e-09
0	0.5910474	-0.39352146	0	-3.5529277e-18	-5.1877323e-18	0.19634955	4.9087386	0.66	1e-07	1.28e-07	0	0	1e-09
0	0.63504696	-0.38286987	0	-3.5545374e-18	-5.1892485e-18	0.19634955	5.006913	0.66	1e-07	1.28e-07	0	0	1e-09
0	0.6791653	-0.3679231	0	-3.5546064e-18	-5.1911064e-18	0.19634955	5.105088	0.66	1e-07	1.28e-07	0	0	1e-09
0	0.72347	-0.34808302	0	-3.5539914e-18	-5.193293e-18	0.19634955	5.203263	0.66	1e-07	1.28e-07	0	0	1e-09
0	0.7677863	-0.3226305	0	-3.5538756e-18	-5.195493e-18	0.19634955	5.3014374	0.66	1e-07	1.28e-07	0	0	1e-09
0	0.81119955	-0.29105252	0	-3.555657e-18	-5.1968888e-18	0.19634955	5.3996124	0.66	1e-07	1.28e-07	0	0	1e-09
0	0.85182726	-0.2537218	0	-3.560482e-18	-5.1965165e-18	0.19634955	5.497787	0.66	1e-07	1.28e-07	0	0	1e-09
0	0.8872957	-0.21258642	0	-3.568555e-18	-5.1943592e-18	0.19634955	5.595962	0.66	1e-07	1.28e-07	0	0	1e-09
0	0.9164498	-0.16998038	0	-3.5789462e-18	-5.191552e-18	0.19634955	5.6941366	0.66	1e-07	1.28e-07	0	0	1e-09
0	0.9396401	-0.12716286	0	-3.590191e-18	-5.1891224e-18	0.19634955	5.7923117	0.66	1e-07	1.28e-07	0	0	1e-09
0	0.9576155	-0.08458774	0	-3.6009095e-18	-5.187462e-18	0.19634955	5.8904862	0.66	1e-07	1.28e-07	0	0	1e-09
0	0.9710893	-0.04221742	0	-3.610046e-18	-5.1864717e-18	0.19634955	5.988661	0.66	1e-07	1.28e-07	0	0	1e-09
0	0.98049664	3.5513823e-09	0	-3.6168638e-18	-5.1859414e-18	0.19634955	6.086836	0.66	1e-07	1.28e-07	0	0	1e-09
0	0.9861268	0.042157892	0	-3.620891e-18	-5.185645e-18	0.19634955	6.1850104	0.66	1e-07	1.28e-07	0	0	1e-09
0	0.9881151	0.08431378	0	-3.621871e-18	-5.1854476e-18	0.19634955	6.2831855	0.66	1e-07	1.28e-07	0	0	1e-09
0	0.9789134	0.12657185	0	-3.6144414e-18	-5.185807e-18	0.2945243	0	0.66	1e-07	1.28e-07	0	0	1e-09
0	0.9774013	0.16878203	0	-3.6120024e-18	-5.185582e-18	0.2945243	0.09817477	0.66	1e-07	1.28e-07	0	0	1e-09
0	0.972244	0.21106268	0	-3.6065253e-18	-5.18547e-18	0.2945243	0.19634955	0.66	1e-07	1.28e-07	0	0	1e-09
0	0.9632963	0.2534812	0	-3.5982696e-18	-5.185631e-18	0.2945243	0.2945243	0.66	1e-07	1.28e-07	0	0	1e-09
0	0.9503019	0.29606074	0	-3.5877036e-18	-5.186279e-18	0.2945243	0.3926991	0.66	1e-07	1.28e-07	0	0	1e-09
0	0.93276805	0.33900785	0	-3.5755668e-18	-5.187697e-18	0.2945243	0.49087384	0.66	1e-07	1.28e-07	0	0	1e-09
0	0.91001153	0.38229635	0	-3.56292e-18	-5.189988e-18	0.2945243	0.5890486	0.66	1e-07	1.28e-07	0	0	1e-09
0	0.88124794	0.42551532	0	-3.5511658e-18	-5.192796e-18	0.2945243	0.6872234	0.66	1e-07	1.28e-07	0	0	1e-09
0	0.84603447	0.4674952	0	-3.541816e-18	-5.1950892e-18	0.2945243	0.7853982	0.66	1e-07	1.28e-07	0	0	1e-09
0	0.8054598	0.5058491	0	-3.5358766e-18	-5.1956157e-18	0.2945243	0.88357294	0.66	1e-07	1.28e-07	0	0	1e-09
0	0.761929	0.5385036	0	-3.5331973e-18	-5.194294e-18	0.2945243	0.9817477	0.66	1e-07	1.28e-07	0	0	1e-09
0	0.71744126	0.5648143	0	-3.5326258e-18	-5.1920493e-18	0.2945243	1.0799224	0.66	1e-07	1.28e-07	0	0	1e-09
0	0.67294407	0.5854821	0	-3.532733e-18	-5.189812e-18	0.2945243	1.1780972	0.66	1e-07	1.28e-07	0	0	1e-09
0	0.62863797	0.60119694	0	-3.5323028e-18	-5.1879192e-18	0.2945243	1.276272	0.66	1e-07	1.28e-07	0	0	1e-09
0	0.5844751	0.6125012	0	-3.5304614e-18	-5.186401e-18	0.2945243	1.3744467	0.66	1e-07	1.28e-07	0	0	1e-09
0	0.54035306	0.6197769	0	-3.5266415e-18	-5.1851908e-18	0.2945243	1.4726216	0.66	1e-07	1.28e-07	0	0	1e-09
0	0.49619317	0.623209	0	-3.5205303e-18	-5.1842325e-18	0.2945243	1.5707964	0.66	1e-07	1.28e-07	0	0	1e-09
0	0.45195138	0.6228601	0	-3.5120157e-18	-5.183527e-18	0.2945243	1.6689711	0.66	1e-07	1.28e-07	0	0	1e-09
0	0.40757552	0.61867946	0	-3.5011768e-18	-5.183168e-18	0.2945243	1.7671459	0.66	1e-07	1.28e-07	0	0	1e-09
0	0.3630065	0.610537	0	-3.4882856e-18	-5.1833445e-18	0.2945243	1.8653207	0.66	1e-07	1.28e-07	0	0	1e-09
0	0.31814396	0.5981228	0	-3.4738434e-18	-5.184318e-18	0.2945243	1.9634954	0.66	1e-07	1.28e-07	0	0	1e-09
0	0.2728919	0.5809288	0	-3.458647e-18	-5.186345e-18	0.2945243	2.06167	0.66	1e-07	1.28e-07	0	0	1e-09
0	0.22712424	0.55815744	0	-3.4438687e-18	-5.18955e-18	0.2945243	2.1598449	0.66	1e-07	1.28e-07	0	0	1e-09
0	0.18126847	0.5288993	0	-3.4310918e-18	-5.193419e-18	0.2945243	2.2580197	0.66	1e-07	1.28e-07	0	0	1e-09
0	0.13667615	0.4925831	0	-3.4220716e-18	-5.1965397e-18	0.2945243	2.3561945	0.66	1e-07	1.28e-07	0	0	1e-09
0	0.09625165	0.45053405	0	-3.417969e-18	-5.197255e-18	0.2945243	2.4543693	0.66	1e-07	1.28e-07	0	0	1e-09
0	0.0624805	0.40550613	0	-3.4185274e-18	-5.1956062e-18	0.2945243	2.552544	0.66	1e-07	1.28e-07	0	0	1e-09
0	0.035725098	0.3598458	0	-3.4223198e-18	-5.1930796e-18	0.2945243	2.6507187	0.66	1e-07	1.28e-07	0	0	1e-09
0	0.015187354	0.3143189	0	-3.4276865e-18	-5.190783e-18	0.2945243	2.7488935	0.66	1e-07	1.28e-07	0	0	1e-09
0	1.9679051e-10	0.26923957	0	-3.4332783e-18	-5.189153e-18	0.2945243	2.8470683	0.66	1e-07	1.28e-07	0	0	1e-09
0	-0.010488307	0.22429802	0	-3.4381526e-18	-5.1881608e-18	0.2945243	2.9452431	0.66	1e-07	1.28e-07	0	0	1e-09
0	-0.016651113	0.17947695	0	-3.4417149e-18	-5.187697e-18	0.2945243	3.043418	0.66	1e-07	1.28e-07	0	0	1e-09
0	-0.01869151	0.13472153	0	-3.443636e-18	-5.187659e-18	0.2945243	3.1415927	0.66	1e-07	1.28e-07	0	0	1e-09
0	-0.016654713	0.08992042	0	-3.4438101e-18	-5.187995e-18	0.2945243	3.2397673	0.66	1e-07	1.28e-07	0	0	1e-09
0	-0.010488337	0.045038648	0	-3.4423382e-18	-5.1887323e-18	0.2945243	3.3379421	0.66	1e-07	1.28e-07	0	0	1e-09
0	-5.400298e-10	-1.773403e-09	0	-3.439543e-18	-5.189964e-18	0.2945243	3.436117	0.66	1e-07	1.28e-07	0	0	1e-09
0	0.015184438	-0.045310877	0	-3.4360164e-18	-5.1917615e-18	0.2945243	3.5342917	0.66	1e-07	1.28e-07	0	0	1e-09
0	0.035692587	-0.090989076	0	-3.432688e-18	-5.194118e-18	0.2945243	3.6324666	0.66	1e-07	1.28e-07	0	0	1e-09
0	0.062395744	-0.1368976	0	-3.4308726e-18	-5.1965935e-18	0.2945243	3.7306414	0.66	1e-07	1.28e-07	0	0	1e-09
0	0.095985845	-0.18207519	0	-3.4321684e-18	-5.1980853e-18	0.2945243	3.828816	0.66	1e-07	1.28e-07	0	0	1e-09
0	0.13604265	-0.22434321	0	-3.4378995e-18	-5.1972916e-18	0.2945243	3.9269907	0.66	1e-07	1.28e-07	0	0	1e-09
0	0.18012705	-0.2608792	0	-3.448246e-18	-5.194284e-18	0.2945243	4.0251656	0.66	1e-07	1.28e-07	0	0	1e-09
0	0.2254778	-0.2904703	0	-3.4620455e-18	-5.1906754e-18	0.2945243	4.12334	0.66	1e-07	1.28e-07	0	0	1e-09
0	0.27078572	-0.3136675	0	-3.477591e-18	-5.187779e-18	0.2945243	4.221515	0.66	1e-07	1.28e-07	0	0	1e-09
0	0.31568807	-0.331396	0	-3.493349e-18	-5.1860262e-18	0.2945243	4.3196898	0.66	1e-07	1.28e-07	0	0	1e-09
0	0.36016235	-0.34437484	0	-3.5081784e-18	-5.18532e-18	0.2945243	4.417865	0.66	1e-07	1.28e-07	0	0	1e-09
0	0.40442607	-0.3531599	0	-3.5213025e-18	-5.1853426e-18	0.2945243	4.5160394	0.66	1e-07	1.28e-07	0	0	1e-09
0	0.44855434	-0.35802236	0	-3.5322316e-18	-5.185838e-18	0.2945243	4.6142144	0.66	1e-07	1.28e-07	0	0	1e-09
0	0.49253327	-0.35905966	0	-3.5406995e-18	-5.186639e-18	0.2945243	4.712389	0.66	1e-07	1.28e-07	0	0	1e-09
0	0.5364837	-0.35636568	0	-3.54663e-18	-5.1876347e-18	0.2945243	4.8105636	0.66	1e-07	1.28e-07	0	0	1e-09
0	0.58042115	-0.349849	0	-3.5501314e-18	-5.1888308e-18	0.2945243	4.9087386	0.66	1e-07	1.28e-07	0	0	1e-09
0	0.62443566	-0.3393611	0	-3.551514e-18	-5.190287e-18	0.2945243	5.006913	0.66	1e-07	1.28e-07	0	0	1e-09
0	0.668594	-0.3245818	0	-3.5513283e-18	-5.1920824e-18	0.2945243	5.105088	0.66	1e-07	1.28e-07	0	0	1e-09
0	0.71295506	-0.3049345	0	-3.5504296e-18	-5.1942124e-18	0.2945243	5.203263	0.66	1e-07	1.28e-07	0	0	1e-09
0	0.75731355	-0.2796878	0	-3.549993e-18	-5.1963734e-18	0.2945243	5.3014374	0.66	1e-07	1.28e-07	0	0	1e-09
0	0.8008105	-0.24831122	0	-3.5514148e-18	-5.1977627e-18	0.2945243	5.3996124	0.66	1e-07	1.28e-07	0	0	1e-09
0	0.84155655	-0.2111919	0	-3.5558505e-18	-5.1974037e-18	0.2945243	5.497787	0.66	1e-07	1.28e-07	0	0	1e-09
0	0.87718153	-0.17019974	0	-3.563524e-18	-5.1952493e-18	0.2945243	5.595962	0.66	1e-07	1.28e-07	0	0	1e-09
0	0.90649337	-0.12767927	0	-3.573525e-18	-5.192413e-18	0.2945243	5.6941366	0.66	1e-07	1.28e-07	0	0	1e-09
0	0.92986363	-0.08489314	0	-3.5843957e-18	-5.1899032e-18	0.2945243	5.7923117	0.66	1e-07	1.28e-07	0	0	1e-09
0	0.9479778	-0.042340726	0	-3.594759e-18	-5.188163e-18	0.2945243	5.8904862	0.66	1e-07	1.28e-07	0	0	1e-09
0	0.9615584	5.1714716e-10	0	-3.603554e-18	-5.1870982e-18	0.2945243	5.988661	0.66	1e-07	1.28e-07	0	0	1e-09
0	0.9710884	0.04222079	0	-3.610047e-18	-5.1864717e-18	0.2945243	6.086836	0.66	1e-07	1.28e-07	0	0	1e-09
0	0.9768226	0.0843959	0	-3.6137623e-18	-5.1860907e-18	0.2945243	6.1850104	0.66	1e-07	1.28e-07	0	0	1e-09
0	0.978915	0.12656544	0	-3.6144426e-18	-5.185806e-18	0.2945243	6.2831855	0.66	1e-07	1.28e-07	0	0	1e-09
0	0.96566343	0.16899395	0	-3.6046823e-18	-5.1866317e-18	0.3926991	0	0.66	1e-07	1.28e-07	0	0	1e-09
0	0.96425575	0.21121828	0	-3.601956e-18	-5.186328e-18	0.3926991	0.09817477	0.66	1e-07	1.28e-07	0	0	1e-09
0	0.9591667	0.25360727	0	-3.5962107e-18	-5.186172e-18	0.3926991	0.19634955	0.66	1e-07	1.28e-07	0	0	1e-09
0	0.95031136	0.29602644	0	-3.5877044e-18	-5.186269e-18	0.3926991	0.2945243	0.66	1e-07	1.28e-07	0	0	1e-09
0	0.9373364	0.33882415	0	-3.576908e-18	-5.186929e-18	0.3926991	0.3926991	0.66	1e-07	1.28e-07	0	0	1e-09
0	0.9198742	0.3818047	0	-3.5645607e-18	-5.1883204e-18	0.3926991	0.49087384	0.66	1e-07	1.28e-07	0	0	1e-09
0	0.8971177	0.4252767	0	-3.5517303e-18	-5.1906514e-18	0.3926991	0.5890486	0.66	1e-07	1.28e-07	0	0	1e-09
0	0.868344	0.46865666	0	-3.5398247e-18	-5.1935048e-18	0.3926991	0.6872234	0.66	1e-07	1.28e-07	0	0	1e-09
0	0.8330675	0.51085013	0	-3.5303705e-18	-5.195868e-18	0.3926991	0.7853982	0.66	1e-07	1.28e-07	0	0	1e-09
0	0.79237956	0.5494292	0	-3.5243837e-18	-5.1964537e-18	0.3926991	0.88357294	0.66	1e-07	1.28e-07	0	0	1e-09
0	0.7487077	0.5822652	0	-3.5217128e-18	-5.1951637e-18	0.3926991	0.9817477	0.66	1e-07	1.28e-07	0	0	1e-09
0	0.7041056	0.6087666	0	-3.521196e-18	-5.192961e-18	0.3926991	1.0799224	0.66	1e-07	1.28e-07	0	0	1e-09
0	0.6594929	0.62952757	0	-3.5213927e-18	-5.1907445e-18	0.3926991	1.1780972	0.66	1e-07	1.28e-07	0	0	1e-09
0	0.61507946	0.64535433	0	-3.521081e-18	-5.1889007e-18	0.3926991	1.276272	0.66	1e-07	1.28e-07	0	0	1e-09
0	0.57078993	0.65681976	0	-3.5193843e-18	-5.187459e-18	0.3926991	1.3744467	0.66	1e-07	1.28e-07	0	0	1e-09
0	0.5265495	0.66420346	0	-3.515734e-18	-5.1863215e-18	0.3926991	1.4726216	0.66	1e-07	1.28e-07	0	0	1e-09
0	0.48226228	0.66774255	0	-3.509814e-18	-5.185445e-18	0.3926991	1.5707964	0.66	1e-07	1.28e-07	0	0	1e-09
0	0.43791094	0.6674535	0	-3.5015176e-18	-5.1848185e-18	0.3926991	1.6689711	0.66	1e-07	1.28e-07	0	0	1e-09
0	0.39338094	0.66339064	0	-3.490923e-18	-5.1845683e-18	0.3926991	1.7671459	0.66	1e-07	1.28e-07	0	0	1e-09
0	0.34870908	0.655296	0	-3.478303e-18	-5.1848293e-18	0.3926991	1.8653207	0.66	1e-07	1.28e-07	0	0	1e-09
0	0.30371314	0.6429457	0	-3.4641617e-18	-5.1858984e-18	0.3926991	1.9634954	0.66	1e-07	1.28e-07	0	0	1e-09
0	0.25831705	0.6257986	0	-3.4493014e-18	-5.188018e-18	0.3926991	2.06167	0.66	1e-07	1.28e-07	0	0	1e-09
0	0.21234895	0.60307795	0	-3.4349022e-18	-5.1913235e-18	0.3926991	2.1598449	0.66	1e-07	1.28e-07	0	0	1e-09
0	0.16632976	0.57380486	0	-3.4225551e-18	-5.1952315e-18	0.3926991	2.2580197	0.66	1e-07	1.28e-07	0	0	1e-09
0	0.12160063	0.53748167	0	-3.4140176e-18	-5.198326e-18	0.3926991	2.3561945	0.66	1e-07	1.28e-07	0	0	1e-09
0	0.081092685	0.49544463	0	-3.410435e-18	-5.1989633e-18	0.3926991	2.4543693	0.66	1e-07	1.28e-07	0	0	1e-09
0	0.04729238	0.4504547	0	-3.4115189e-18	-5.1972424e-18	0.3926991	2.552544	0.66	1e-07	1.28e-07	0	0	1e-09