# t (s)	mx ()	my ()	mz ()	E_total (J)	E_Zeeman (J)	island1_angle (rad)	island2_angle (rad)	roundness ()	size (m)	islands_distance (m)	islands_angle (rad)
0	0.997109	8.053269e-10	0	-3.4673093e-18	-5.117961e-18	0	0	0.66	1e-07	1.28e-07	0
0	0.995151	0.043893527	0	-3.4661949e-18	-5.118019e-18	0	0.09817477	0.66	1e-07	1.28e-07	0
0	0.98924464	0.08771019	0	-3.4629157e-18	-5.118218e-18	0	0.19634955	0.66	1e-07	1.28e-07	0
0	0.9792882	0.13136734	0	-3.457676e-18	-5.118624e-18	0	0.2945243	0.66	1e-07	1.28e-07	0
0	0.96509486	0.17478116	0	-3.4508253e-18	-5.119316e-18	0	0.3926991	0.66	1e-07	1.28e-07	0
0	0.9463936	0.2177981	0	-3.4428802e-18	-5.1203415e-18	0	0.49087384	0.66	1e-07	1.28e-07	0
0	0.9228724	0.26010174	0	-3.4345056e-18	-5.121629e-18	0	0.5890486	0.66	1e-07	1.28e-07	0
0	0.89430994	0.30109513	0	-3.4264542e-18	-5.1229256e-18	0	0.6872234	0.66	1e-07	1.28e-07	0
0	0.8608278	0.33980638	0	-3.4194087e-18	-5.123826e-18	0	0.7853982	0.66	1e-07	1.28e-07	0
0	0.82308567	0.37505776	0	-3.4137756e-18	-5.1239806e-18	0	0.88357294	0.66	1e-07	1.28e-07	0
0	0.7821829	0.4058645	0	-3.4095198e-18	-5.1233445e-18	0	0.9817477	0.66	1e-07	1.28e-07	0
0	0.73926085	0.43173915	0	-3.4062133e-18	-5.1221708e-18	0	1.0799224	0.66	1e-07	1.28e-07	0
0	0.695167	0.45266822	0	-3.4032121e-18	-5.120793e-18	0	1.1780972	0.66	1e-07	1.28e-07	0
0	0.65038896	0.4688876	0	-3.3998641e-18	-5.119456e-18	0	1.276272	0.66	1e-07	1.28e-07	0
0	0.6051764	0.48065984	0	-3.3956302e-18	-5.1182797e-18	0	1.3744467	0.66	1e-07	1.28e-07	0
0	0.5596553	0.48818684	0	-3.3901307e-18	-5.117307e-18	0	1.4726216	0.66	1e-07	1.28e-07	0
0	0.51391417	0.49158043	0	-3.3831484e-18	-5.1165575e-18	0	1.5707964	0.66	1e-07	1.28e-07	0
0	0.46803504	0.49087328	0	-3.3746181e-18	-5.1160654e-18	0	1.6689711	0.66	1e-07	1.28e-07	0
0	0.42209995	0.48602363	0	-3.3646188e-18	-5.115899e-18	0	1.7671459	0.66	1e-07	1.28e-07	0
0	0.37619105	0.4769111	0	-3.3533811e-18	-5.1161613e-18	0	1.8653207	0.66	1e-07	1.28e-07	0
0	0.33039853	0.463321	0	-3.3413005e-18	-5.116962e-18	0	1.9634954	0.66	1e-07	1.28e-07	0
0	0.28487167	0.44493365	0	-3.328961e-18	-5.1183595e-18	0	2.06167	0.66	1e-07	1.28e-07	0
0	0.2399182	0.42135876	0	-3.3171297e-18	-5.1202563e-18	0	2.1598449	0.66	1e-07	1.28e-07	0
0	0.1961996	0.39228147	0	-3.3066981e-18	-5.1222866e-18	0	2.2580197	0.66	1e-07	1.28e-07	0
0	0.15484345	0.35777196	0	-3.2985037e-18	-5.1238433e-18	0	2.3561945	0.66	1e-07	1.28e-07	0
0	0.117290884	0.31857687	0	-3.2930567e-18	-5.1243897e-18	0	2.4543693	0.66	1e-07	1.28e-07	0
0	0.0847704	0.27602443	0	-3.2903266e-18	-5.12385e-18	0	2.552544	0.66	1e-07	1.28e-07	0
0	0.057838425	0.23146525	0	-3.2897823e-18	-5.1226224e-18	0	2.6507187	0.66	1e-07	1.28e-07	0
0	0.036439136	0.18585801	0	-3.2906423e-18	-5.1212187e-18	0	2.7488935	0.66	1e-07	1.28e-07	0
0	0.020247161	0.13972017	0	-3.2921331e-18	-5.11999e-18	0	2.8470683	0.66	1e-07	1.28e-07	0
0	0.008922864	0.09329116	0	-3.2936264e-18	-5.1190908e-18	0	2.9452431	0.66	1e-07	1.28e-07	0
0	0.0022198511	0.046688624	0	-3.2946893e-18	-5.1185585e-18	0	3.043418	0.66	1e-07	1.28e-07	0
0	1.93232e-09	-4.4592002e-10	0	-3.2950713e-18	-5.118384e-18	0	3.1415927	0.66	1e-07	1.28e-07	0
0	0.0022199193	-0.046689115	0	-3.2946897e-18	-5.118559e-18	0	3.2397673	0.66	1e-07	1.28e-07	0
0	0.008922842	-0.09329106	0	-3.2936262e-18	-5.1190908e-18	0	3.3379421	0.66	1e-07	1.28e-07	0
0	0.0202475	-0.13972166	0	-3.2921325e-18	-5.11999e-18	0	3.436117	0.66	1e-07	1.28e-07	0
0	0.03643956	-0.18585925	0	-3.2906421e-18	-5.1212187e-18	0	3.5342917	0.66	1e-07	1.28e-07	0
0	0.057838436	-0.23146513	0	-3.2897827e-18	-5.1226224e-18	0	3.6324666	0.66	1e-07	1.28e-07	0
0	0.08477009	-0.27602383	0	-3.2903262e-18	-5.1238495e-18	0	3.7306414	0.66	1e-07	1.28e-07	0
0	0.117290646	-0.31857675	0	-3.2930565e-18	-5.1243897e-18	0	3.828816	0.66	1e-07	1.28e-07	0
0	0.15484346	-0.35777196	0	-3.2985039e-18	-5.1238433e-18	0	3.9269907	0.66	1e-07	1.28e-07	0
0	0.19620006	-0.39228177	0	-3.3066981e-18	-5.122286e-18	0	4.0251656	0.66	1e-07	1.28e-07	0
0	0.2399185	-0.42135894	0	-3.31713e-18	-5.1202563e-18	0	4.12334	0.66	1e-07	1.28e-07	0
0	0.28487173	-0.4449335	0	-3.328961e-18	-5.1183595e-18	0	4.221515	0.66	1e-07	1.28e-07	0
0	0.3303991	-0.46332106	0	-3.3413008e-18	-5.1169616e-18	0	4.3196898	0.66	1e-07	1.28e-07	0
0	0.3761911	-0.47691107	0	-3.3533811e-18	-5.1161613e-18	0	4.417865	0.66	1e-07	1.28e-07	0
0	0.4220998	-0.48602375	0	-3.3646188e-18	-5.1158987e-18	0	4.5160394	0.66	1e-07	1.28e-07	0
0	0.4680348	-0.49087343	0	-3.3746181e-18	-5.1160654e-18	0	4.6142144	0.66	1e-07	1.28e-07	0
0	0.5139127	-0.49158123	0	-3.383149e-18	-5.116558e-18	0	4.712389	0.66	1e-07	1.28e-07	0
0	0.5596559	-0.48818645	0	-3.3901309e-18	-5.1173074e-18	0	4.8105636	0.66	1e-07	1.28e-07	0
0	0.60517645	-0.4806597	0	-3.3956304e-18	-5.11828e-18	0	4.9087386	0.66	1e-07	1.28e-07	0
0	0.6503888	-0.46888772	0	-3.3998641e-18	-5.119456e-18	0	5.006913	0.66	1e-07	1.28e-07	0
0	0.69516706	-0.45266804	0	-3.4032117e-18	-5.1207927e-18	0	5.105088	0.66	1e-07	1.28e-07	0
0	0.7392613	-0.4317385	0	-3.406213e-18	-5.1221704e-18	0	5.203263	0.66	1e-07	1.28e-07	0
0	0.7821829	-0.40586615	0	-3.4095198e-18	-5.123345e-18	0	5.3014374	0.66	1e-07	1.28e-07	0
0	0.823085	-0.37506008	0	-3.4137746e-18	-5.1239815e-18	0	5.3996124	0.66	1e-07	1.28e-07	0
0	0.8608281	-0.33980605	0	-3.4194096e-18	-5.123826e-18	0	5.497787	0.66	1e-07	1.28e-07	0
0	0.89431	-0.30109513	0	-3.4264542e-18	-5.122926e-18	0	5.595962	0.66	1e-07	1.28e-07	0
0	0.9228716	-0.26010334	0	-3.4345056e-18	-5.121629e-18	0	5.6941366	0.66	1e-07	1.28e-07	0
0	0.9463949	-0.21779406	0	-3.4428804e-18	-5.1203406e-18	0	5.7923117	0.66	1e-07	1.28e-07	0
0	0.96509475	-0.1747813	0	-3.4508255e-18	-5.1193166e-18	0	5.8904862	0.66	1e-07	1.28e-07	0
0	0.9792882	-0.13136733	0	-3.4576758e-18	-5.118624e-18	0	5.988661	0.66	1e-07	1.28e-07	0
0	0.989245	-0.08770794	0	-3.4629155e-18	-5.1182177e-18	0	6.086836	0.66	1e-07	1.28e-07	0
0	0.99515104	-0.04389342	0	-3.4661949e-18	-5.118019e-18	0	6.1850104	0.66	1e-07	1.28e-07	0
0	0.997109	1.959029e-09	0	-3.4673095e-18	-5.117961e-18	0	6.2831855	0.66	1e-07	1.28e-07	0
0	0.99515104	0.043893486	0	-3.4661949e-18	-5.1180196e-18	0.09817477	0	0.66	1e-07	1.28e-07	0
0	0.9932955	0.08780207	0	-3.464782e-18	-5.11801e-18	0.09817477	0.09817477	0.66	1e-07	1.28e-07	0
0	0.98748994	0.1316467	0	-3.461208e-18	-5.118146e-18	0.09817477	0.19634955	0.66	1e-07	1.28e-07	0
0	0.9776311	0.17535263	0	-3.4556763e-18	-5.118494e-18	0.09817477	0.2945243	0.66	1e-07	1.28e-07	0
0	0.96353287	0.21883036	0	-3.448539e-18	-5.119138e-18	0.09817477	0.3926991	0.66	1e-07	1.28e-07	0
0	0.9449221	0.26193002	0	-3.4403116e-18	-5.120127e-18	0.09817477	0.49087384	0.66	1e-07	1.28e-07	0
0	0.92148316	0.3043412	0	-3.4316642e-18	-5.121394e-18	0.09817477	0.5890486	0.66	1e-07	1.28e-07	0
0	0.89299047	0.3454668	0	-3.4233507e-18	-5.1226865e-18	0.09817477	0.6872234	0.66	1e-07	1.28e-07	0
0	0.8595565	0.38433647	0	-3.4160638e-18	-5.1235948e-18	0.09817477	0.7853982	0.66	1e-07	1.28e-07	0
0	0.8218357	0.41976863	0	-3.4102142e-18	-5.1237627e-18	0.09817477	0.88357294	0.66	1e-07	1.28e-07	0
0	0.78093076	0.45075786	0	-3.4057766e-18	-5.123135e-18	0.09817477	0.9817477	0.66	1e-07	1.28e-07	0
0	0.73799056	0.4768098	0	-3.4023217e-18	-5.121963e-18	0.09817477	1.0799224	0.66	1e-07	1.28e-07	0
0	0.6938644	0.49790773	0	-3.3992053e-18	-5.1205847e-18	0.09817477	1.1780972	0.66	1e-07	1.28e-07	0
0	0.64904845	0.5142869	0	-3.3957741e-18	-5.1192504e-18	0.09817477	1.276272	0.66	1e-07	1.28e-07	0
0	0.60379183	0.5262093	0	-3.391484e-18	-5.118079e-18	0.09817477	1.3744467	0.66	1e-07	1.28e-07	0
0	0.55822253	0.5338767	0	-3.385957e-18	-5.117119e-18	0.09817477	1.4726216	0.66	1e-07	1.28e-07	0
0	0.51242626	0.5374044	0	-3.3789726e-18	-5.1163888e-18	0.09817477	1.5707964	0.66	1e-07	1.28e-07	0
0	0.46648598	0.5368234	0	-3.3704655e-18	-5.1159227e-18	0.09817477	1.6689711	0.66	1e-07	1.28e-07	0
0	0.4204873	0.53209054	0	-3.3605166e-18	-5.1157887e-18	0.09817477	1.7671459	0.66	1e-07	1.28e-07	0
0	0.37450844	0.5230864	0	-3.3493567e-18	-5.1160893e-18	0.09817477	1.8653207	0.66	1e-07	1.28e-07	0
0	0.32864052	0.50959456	0	-3.3373849e-18	-5.1169347e-18	0.09817477	1.9634954	0.66	1e-07	1.28e-07	0
0	0.28303158	0.49129352	0	-3.3251848e-18	-5.1183777e-18	0.09817477	2.06167	0.66	1e-07	1.28e-07	0
0	0.23799479	0.4677897	0	-3.3135288e-18	-5.1203175e-18	0.09817477	2.1598449	0.66	1e-07	1.28e-07	0
0	0.19419084	0.4387662	0	-3.3033106e-18	-5.12238e-18	0.09817477	2.2580197	0.66	1e-07	1.28e-07	0
0	0.15275699	0.4042941	0	-3.2953713e-18	-5.1239525e-18	0.09817477	2.3561945	0.66	1e-07	1.28e-07	0
0	0.11514542	0.36512753	0	-3.2902176e-18	-5.1244956e-18	0.09817477	2.4543693	0.66	1e-07	1.28e-07	0
0	0.082586825	0.32260033	0	-3.287811e-18	-5.1239447e-18	0.09817477	2.552544	0.66	1e-07	1.28e-07	0
0	0.055634648	0.27806666	0	-3.2876095e-18	-5.122708e-18	0.09817477	2.6507187	0.66	1e-07	1.28e-07	0
0	0.03422632	0.23248619	0	-3.2888234e-18	-5.1213055e-18	0.09817477	2.7488935	0.66	1e-07	1.28e-07	0
0	0.018030012	0.18637262	0	-3.290673e-18	-5.120089e-18	0.09817477	2.8470683	0.66	1e-07	1.28e-07	0
0	0.006703568	0.13996057	0	-3.292527e-18	-5.119211e-18	0.09817477	2.9452431	0.66	1e-07	1.28e-07	0
0	-2.0066402e-09	0.09337036	0	-3.2939502e-18	-5.1187053e-18	0.09817477	3.043418	0.66	1e-07	1.28e-07	0
0	-0.0022198511	0.046688713	0	-3.2946893e-18	-5.1185585e-18	0.09817477	3.1415927	0.66	1e-07	1.28e-07	0
0	1.4864002e-10	-2.2760502e-10	0	-3.294662e-18	-5.118761e-18	0.09817477	3.2397673	0.66	1e-07	1.28e-07	0
0	0.006702453	-0.046609078	0	-3.2939474e-18	-5.1193182e-18	0.09817477	3.3379421	0.66	1e-07	1.28e-07	0
0	0.018025035	-0.0930514	0	-3.292794e-18	-5.120235e-18	0.09817477	3.436117	0.66	1e-07	1.28e-07	0
0	0.03421249	-0.13920693	0	-3.2916346e-18	-5.1214747e-18	0.09817477	3.5342917	0.66	1e-07	1.28e-07	0
0	0.055601154	-0.18483451	0	-3.2910907e-18	-5.122879e-18	0.09817477	3.6324666	0.66	1e-07	1.28e-07	0
0	0.08251097	-0.2294139	0	-3.2919317e-18	-5.124099e-18	0.09817477	3.7306414	0.66	1e-07	1.28e-07	0
0	0.11499584	-0.27199602	0	-3.2949298e-18	-5.1246316e-18	0.09817477	3.828816	0.66	1e-07	1.28e-07	0
0	0.15249385	-0.3112251	0	-3.3006074e-18	-5.124088e-18	0.09817477	3.9269907	0.66	1e-07	1.28e-07	0
0	0.19378376	-0.3457841	0	-3.3089896e-18	-5.12255e-18	0.09817477	4.0251656	0.66	1e-07	1.28e-07	0
0	0.23743185	-0.37492868	0	-3.3195672e-18	-5.120552e-18	0.09817477	4.12334	0.66	1e-07	1.28e-07	0
0	0.2823174	-0.39858928	0	-3.331505e-18	-5.118692e-18	0.09817477	4.221515	0.66	1e-07	1.28e-07	0
0	0.32778618	-0.41707575	0	-3.3439155e-18	-5.117329e-18	0.09817477	4.3196898	0.66	1e-07	1.28e-07	0
0	0.3735257	-0.4307771	0	-3.3560357e-18	-5.1165588e-18	0.09817477	4.417865	0.66	1e-07	1.28e-07	0
0	0.4193878	-0.44001037	0	-3.3672852e-18	-5.1163205e-18	0.09817477	4.5160394	0.66	1e-07	1.28e-07	0
0	0.4652821	-0.44498864	0	-3.377268e-18	-5.1165033e-18	0.09817477	4.6142144	0.66	1e-07	1.28e-07	0
0	0.511127	-0.4458317	0	-3.385757e-18	-5.1170046e-18	0.09817477	4.712389	0.66	1e-07	1.28e-07	0
0	0.5568392	-0.44258088	0	-3.3926718e-18	-5.1177565e-18	0.09817477	4.8105636	0.66	1e-07	1.28e-07	0
0	0.6023366	-0.43520457	0	-3.3980788e-18	-5.118725e-18	0.09817477	4.9087386	0.66	1e-07	1.28e-07	0
0	0.64753217	-0.42358962	0	-3.4021939e-18	-5.1198915e-18	0.09817477	5.006913	0.66	1e-07	1.28e-07	0
0	0.69229996	-0.40753633	0	-3.4053946e-18	-5.121215e-18	0.09817477	5.105088	0.66	1e-07	1.28e-07	0
0	0.7363936	-0.38678074	0	-3.4082205e-18	-5.1225806e-18	0.09817477	5.203263	0.66	1e-07	1.28e-07	0
0	0.77932626	-0.36109057	0	-3.4113208e-18	-5.123748e-18	0.09817477	5.3014374	0.66	1e-07	1.28e-07	0
0	0.8202588	-0.33046845	0	-3.415337e-18	-5.1243843e-18	0.09817477	5.3996124	0.66	1e-07	1.28e-07	0
0	0.85805863	-0.29538554	0	-3.4207051e-18	-5.1242325e-18	0.09817477	5.497787	0.66	1e-07	1.28e-07	0
0	0.8916177	-0.25682604	0	-3.4274632e-18	-5.1233317e-18	0.09817477	5.595962	0.66	1e-07	1.28e-07	0
0	0.9202762	-0.21595411	0	-3.435216e-18	-5.12202e-18	0.09817477	5.6941366	0.66	1e-07	1.28e-07	0
0	0.9439035	-0.17374064	0	-3.4432849e-18	-5.1207e-18	0.09817477	5.7923117	0.66	1e-07	1.28e-07	0
0	0.9627121	-0.13079357	0	-3.4509239e-18	-5.1196297e-18	0.09817477	5.8904862	0.66	1e-07	1.28e-07	0
0	0.9770136	-0.08742801	0	-3.4574683e-18	-5.118881e-18	0.09817477	5.988661	0.66	1e-07	1.28e-07	0
0	0.9870774	-0.043799527	0	-3.4624045e-18	-5.1184117e-18	0.09817477	6.086836	0.66	1e-07	1.28e-07	0
0	0.993089	1.0962201e-09	0	-3.4653801e-18	-5.1181453e-18	0.09817477	6.1850104	0.66	1e-07	1.28e-07	0
0	0.99515104	0.04389343	0	-3.4661949e-18	-5.1180196e-18	0.09817477	6.2831855	0.66	1e-07	1.28e-07	0
0	0.9892452	0.08770725	0	-3.4629155e-18	-5.118218e-18	0.19634955	0	0.66	1e-07	1.28e-07	0
0	0.98748994	0.13164663	0	-3.4612082e-18	-5.118146e-18	0.19634955	0.09817477	0.66	1e-07	1.28e-07	0
0	0.98177916	0.17553753	0	-3.457348e-18	-5.118224e-18	0.19634955	0.19634955	0.66	1e-07	1.28e-07	0
0	0.972009	0.21930549	0	-3.4515385e-18	-5.1185233e-18	0.19634955	0.2945243	0.66	1e-07	1.28e-07	0
0	0.957993	0.2628588	0	-3.4441332e-18	-5.1191284e-18	0.19634955	0.3926991	0.66	1e-07	1.28e-07	0
0	0.93945473	0.30605862	0	-3.4356494e-18	-5.120093e-18	0.19634955	0.49087384	0.66	1e-07	1.28e-07	0
0	0.9160748	0.34859318	0	-3.4267584e-18	-5.121352e-18	0.19634955	0.5890486	0.66	1e-07	1.28e-07	0
0	0.8876239	0.38986167	0	-3.4182234e-18	-5.1226526e-18	0.19634955	0.6872234	0.66	1e-07	1.28e-07	0
0	0.8542054	0.42890128	0	-3.4107403e-18	-5.1235803e-18	0.19634955	0.7853982	0.66	1e-07	1.28e-07	0
0	0.8164729	0.46451572	0	-3.4047275e-18	-5.123771e-18	0.19634955	0.88357294	0.66	1e-07	1.28e-07	0
0	0.7755322	0.49569026	0	-3.4001648e-18	-5.123161e-18	0.19634955	0.9817477	0.66	1e-07	1.28e-07	0
0	0.73253965	0.5219158	0	-3.3966222e-18	-5.122003e-18	0.19634955	1.0799224	0.66	1e-07	1.28e-07	0
0	0.6883525	0.543178	0	-3.393453e-18	-5.120637e-18	0.19634955	1.1780972	0.66	1e-07	1.28e-07	0
0	0.64346963	0.5597083	0	-3.3900006e-18	-5.1193182e-18	0.19634955	1.276272	0.66	1e-07	1.28e-07	0
0	0.59814143	0.57177204	0	-3.3857201e-18	-5.1181697e-18	0.19634955	1.3744467	0.66	1e-07	1.28e-07	0
0	0.5524951	0.57957226	0	-3.3802291e-18	-5.117238e-18	0.19634955	1.4726216	0.66	1e-07	1.28e-07	0
0	0.5066185	0.58322287	0	-3.3733085e-18	-5.1165426e-18	0.19634955	1.5707964	0.66	1e-07	1.28e-07	0
0	0.46059355	0.5827563	0	-3.364893e-18	-5.1161187e-18	0.19634955	1.6689711	0.66	1e-07	1.28e-07	0
0	0.41450498	0.5781297	0	-3.355062e-18	-5.116033e-18	0.19634955	1.7671459	0.66	1e-07	1.28e-07	0
0	0.36843216	0.56922096	0	-3.3440489e-18	-5.116387e-18	0.19634955	1.8653207	0.66	1e-07	1.28e-07	0
0	0.32246608	0.55581397	0	-3.3322533e-18	-5.1172875e-18	0.19634955	1.9634954	0.66	1e-07	1.28e-07	0
0	0.27675444	0.53758454	0	-3.3202622e-18	-5.1187855e-18	0.19634955	2.06167	0.66	1e-07	1.28e-07	0
0	0.23161355	0.51413625	0	-3.308851e-18	-5.120772e-18	0.19634955	2.1598449	0.66	1e-07	1.28e-07	0
0	0.18770868	0.4851531	0	-3.2989166e-18	-5.1228664e-18	0.19634955	2.2580197	0.66	1e-07	1.28e-07	0
0	0.14618768	0.4507076	0	-3.2913e-18	-5.124447e-18	0.19634955	2.3561945	0.66	1e-07	1.28e-07	0
0	0.10851174	0.41156143	0	-3.2865009e-18	-5.124979e-18	0.19634955	2.4543693	0.66	1e-07	1.28e-07	0
0	0.07591552	0.36905926	0	-3.2844724e-18	-5.124408e-18	0.19634955	2.552544	0.66	1e-07	1.28e-07	0
0	0.048944067	0.3245543	0	-3.2846608e-18	-5.1231584e-18	0.19634955	2.6507187	0.66	1e-07	1.28e-07	0
0	0.027527286	0.27900502	0	-3.286264e-18	-5.1217547e-18	0.19634955	2.7488935	0.66	1e-07	1.28e-07	0
0	0.011327537	0.2329203	0	-3.2885004e-18	-5.1205507e-18	0.19634955	2.8470683	0.66	1e-07	1.28e-07	0
0	-1.7836801e-09	0.18653205	0	-3.290734e-18	-5.119693e-18	0.19634955	2.9452431	0.66	1e-07	1.28e-07	0
0	-0.006703607	0.13996033	0	-3.2925277e-18	-5.1192115e-18	0.19634955	3.043418	0.66	1e-07	1.28e-07	0
0	-0.008922902	0.09329147	0	-3.2936266e-18	-5.119091e-18	0.19634955	3.1415927	0.66	1e-07	1.28e-07	0
0	-0.006702522	0.04660937	0	-3.2939471e-18	-5.1193182e-18	0.19634955	3.2397673	0.66	1e-07	1.28e-07	0
0	6.5401604e-09	-1.5607201e-09	0	-3.2935666e-18	-5.1198948e-18	0.19634955	3.3379421	0.66	1e-07	1.28e-07	0
0	0.011321158	-0.046448506	0	-3.2927324e-18	-5.1208258e-18	0.19634955	3.436117	0.66	1e-07	1.28e-07	0
0	0.027503785	-0.092615	0	-3.2918744e-18	-5.122072e-18	0.19634955	3.5342917	0.66	1e-07	1.28e-07	0
0	0.048882034	-0.13825884	0	-3.2916085e-18	-5.1234744e-18	0.19634955	3.6324666	0.66	1e-07	1.28e-07	0
0	0.07577171	-0.182859	0	-3.292697e-18	-5.124688e-18	0.19634955	3.7306414	0.66	1e-07	1.28e-07	0
0	0.10822164	-0.22546963	0	-3.2959063e-18	-5.1252156e-18	0.19634955	3.828816	0.66	1e-07	1.28e-07	0
0	0.14567146	-0.26473987	0	-3.3017514e-18	-5.12468e-18	0.19634955	3.9269907	0.66	1e-07	1.28e-07	0
0	0.18690516	-0.2993581	0	-3.3102556e-18	-5.1231634e-18	0.19634955	4.0251656	0.66	1e-07	1.28e-07	0
0	0.23050003	-0.32858405	0	-3.3209087e-18	-5.1211935e-18	0.19634955	4.12334	0.66	1e-07	1.28e-07	0
0	0.2753394	-0.3523442	0	-3.3328832e-18	-5.1193633e-18	0.19634955	4.221515	0.66	1e-07	1.28e-07	0
0	0.32076865	-0.37094325	0	-3.345295e-18	-5.1180258e-18	0.19634955	4.3196898	0.66	1e-07	1.28e-07	0
0	0.36647785	-0.38476822	0	-3.3573867e-18	-5.1172726e-18	0.19634955	4.417865	0.66	1e-07	1.28e-07	0
0	0.41231713	-0.3941336	0	-3.368579e-18	-5.117044e-18	0.19634955	4.5160394	0.66	1e-07	1.28e-07	0
0	0.458195	-0.39925143	0	-3.3784807e-18	-5.1172284e-18	0.19634955	4.6142144	0.66	1e-07	1.28e-07	0
0	0.50403017	-0.40024048	0	-3.386862e-18	-5.117724e-18	0.19634955	4.712389	0.66	1e-07	1.28e-07	0
0	0.54973984	-0.39714205	0	-3.393645e-18	-5.118462e-18	0.19634955	4.8105636	0.66	1e-07	1.28e-07	0
0	0.59524107	-0.38992393	0	-3.3988944e-18	-5.119411e-18	0.19634955	4.9087386	0.66	1e-07	1.28e-07	0
0	0.6404479	-0.37847337	0	-3.4028273e-18	-5.120553e-18	0.19634955	5.006913	0.66	1e-07	1.28e-07	0
0	0.6852334	-0.36259145	0	-3.4058194e-18	-5.1218515e-18	0.19634955	5.105088	0.66	1e-07	1.28e-07	0
0	0.7293549	-0.34201542	0	-3.4084087e-18	-5.123194e-18	0.19634955	5.203263	0.66	1e-07	1.28e-07	0
0	0.77232873	-0.31651235	0	-3.411242e-18	-5.124345e-18	0.19634955	5.3014374	0.66	1e-07	1.28e-07	0
0	0.81332505	-0.28607315	0	-3.414965e-18	-5.124974e-18	0.19634955	5.3996124	0.66	1e-07	1.28e-07	0
0	0.8512106	-0.25115967	0	-3.420016e-18	-5.12482e-18	0.19634955	5.497787	0.66	1e-07	1.28e-07	0
0	0.8848822	-0.21273908	0	-3.4264427e-18	-5.123911e-18	0.19634955	5.595962	0.66	1e-07	1.28e-07	0
0	0.91366416	-0.1719744	0	-3.4338575e-18	-5.1225765e-18	0.19634955	5.6941366	0.66	1e-07	1.28e-07	0
0	0.937419	-0.12983884	0	-3.4415919e-18	-5.1212183e-18	0.19634955	5.7923117	0.66	1e-07	1.28e-07	0
0	0.956353	-0.08694497	0	-3.4488994e-18	-5.1200937e-18	0.19634955	5.8904862	0.66	1e-07	1.28e-07	0
0	0.9707754	-0.04361258	0	-3.45512e-18	-5.1192823e-18	0.19634955	5.988661	0.66	1e-07	1.28e-07	0
0	0.9809552	5.4439404e-09	0	-3.459738e-18	-5.118746e-18	0.19634955	6.086836	0.66	1e-07	1.28e-07	0
0	0.9870774	0.04379953	0	-3.4624045e-18	-5.1184117e-18	0.19634955	6.1850104	0.66	1e-07	1.28e-07	0
0	0.989245	0.087708026	0	-3.4629155e-18	-5.118218e-18	0.19634955	6.2831855	0.66	1e-07	1.28e-07	0
0	0.9792882	0.13136724	0	-3.4576753e-18	-5.118624e-18	0.2945243	0	0.66	1e-07	1.28e-07	0
0	0.9776313	0.17535202	0	-3.455676e-18	-5.118494e-18	0.2945243	0.09817477	0.66	1e-07	1.28e-07	0
0	0.972009	0.21930562	0	-3.4515377e-18	-5.118522e-18	0.2945243	0.19634955	0.66	1e-07	1.28e-07	0
0	0.9623173	0.26315156	0	-3.4454639e-18	-5.1187822e-18	0.2945243	0.2945243	0.66	1e-07	1.28e-07	0
0	0.94836813	0.30680156	0	-3.4378104e-18	-5.119362e-18	0.2945243	0.3926991	0.66	1e-07	1.28e-07	0
0	0.92988443	0.35011053	0	-3.429097e-18	-5.120315e-18	0.2945243	0.49087384	0.66	1e-07	1.28e-07	0
0	0.9065392	0.392783	0	-3.4199983e-18	-5.1215814e-18	0.2945243	0.5890486	0.66	1e-07	1.28e-07	0
0	0.87809867	0.43421328	0	-3.4112823e-18	-5.1229057e-18	0.2945243	0.6872234	0.66	1e-07	1.28e-07	0
0	0.84466296	0.47342843	0	-3.4036507e-18	-5.1238644e-18	0.2945243	0.7853982	0.66	1e-07	1.28e-07	0
0	0.8068811	0.50923216	0	-3.39753e-18	-5.1240878e-18	0.2945243	0.88357294	0.66	1e-07	1.28e-07	0
0	0.7658677	0.5405893	0	-3.392901e-18	-5.1235054e-18	0.2945243	0.9817477	0.66	1e-07	1.28e-07	0
0	0.7227879	0.5669872	0	-3.3893329e-18	-5.1223705e-18	0.2945243	1.0799224	0.66	1e-07	1.28e-07	0
0	0.6785085	0.5884057	0	-3.3861772e-18	-5.12103e-18	0.2945243	1.1780972	0.66	1e-07	1.28e-07	0
0	0.63352776	0.6050794	0	-3.382771e-18	-5.1197405e-18	0.2945243	1.276272	0.66	1e-07	1.28e-07	0
0	0.58809817	0.6172751	0	-3.378566e-18	-5.1186284e-18	0.2945243	1.3744467	0.66	1e-07	1.28e-07	0
0	0.5423466	0.6251975	0	-3.3731799e-18	-5.11774e-18	0.2945243	1.4726216	0.66	1e-07	1.28e-07	0
0	0.49636123	0.6289598	0	-3.3663922e-18	-5.1170956e-18	0.2945243	1.5707964	0.66	1e-07	1.28e-07	0
0	0.45022386	0.6285961	0	-3.358136e-18	-5.1167275e-18	0.2945243	1.6689711	0.66	1e-07	1.28e-07	0
0	0.40401796	0.6240625	0	-3.3484941e-18	-5.1167035e-18	0.2945243	1.7671459	0.66	1e-07	1.28e-07	0
0	0.3578262	0.6152359	0	-3.3376984e-18	-5.117121e-18	0.2945243	1.8653207	0.66	1e-07	1.28e-07	0
0	0.3117384	0.60189885	0	-3.32615e-18	-5.1180845e-18	0.2945243	1.9634954	0.66	1e-07	1.28e-07	0
0	0.26590136	0.58372563	0	-3.3144405e-18	-5.119642e-18	0.2945243	2.06167	0.66	1e-07	1.28e-07	0
0	0.22063474	0.5603178	0	-3.3033456e-18	-5.121675e-18	0.2945243	2.1598449	0.66	1e-07	1.28e-07	0
0	0.17661229	0.5313587	0	-3.2937662e-18	-5.123794e-18	0.2945243	2.2580197	0.66	1e-07	1.28e-07	0
0	0.13499294	0.49692613	0	-3.2865402e-18	-5.125372e-18	0.2945243	2.3561945	0.66	1e-07	1.28e-07	0
0	0.09724886	0.45779163	0	-3.2821615e-18	-5.1258765e-18	0.2945243	2.4543693	0.66	1e-07	1.28e-07	0
0	0.06461451	0.41531333	0	-3.280567e-18	-5.125272e-18	0.2945243	2.552544	0.66	1e-07	1.28e-07	0
0	0.037625268	0.3708405	0	-3.2811906e-18	-5.1239993e-18	0.2945243	2.6507187	0.66	1e-07	1.28e-07	0
0	0.01620204	0.3253272	0	-3.2832207e-18	-5.1225885e-18	0.2945243	2.7488935	0.66	1e-07	1.28e-07	0
0	2.3039202e-09	0.279277	0	-3.2858691e-18	-5.121391e-18	0.2945243	2.8470683	0.66	1e-07	1.28e-07	0
0	-0.01132752	0.23292021	0	-3.2885004e-18	-5.1205503e-18	0.2945243	2.9452431	0.66	1e-07	1.28e-07	0
0	-0.01802989	0.18637231	0	-3.2906723e-18	-5.1200888e-18	0.2945243	3.043418	0.66	1e-07	1.28e-07	0
0	-0.020247407	0.13972124	0	-3.2921327e-18	-5.11999e-18	0.2945243	3.1415927	0.66	1e-07	1.28e-07	0
0	-0.018025056	0.093051404	0	-3.292794e-18	-5.1202356e-18	0.2945243	3.2397673	0.66	1e-07	1.28e-07	0
0	-0.011321119	0.046448413	0	-3.2927328e-18	-5.1208266e-18	0.2945243	3.3379421	0.66	1e-07	1.28e-07	0
0	2.9728002e-09	4.4592002e-10	0	-3.2921941e-18	-5.1217655e-18	0.2945243	3.436117	0.66	1e-07	1.28e-07	0
0	0.016179431	-0.046172388	0	-3.291603e-18	-5.123012e-18	0.2945243	3.5342917	0.66	1e-07	1.28e-07	0
0	0.037548516	-0.091827326	0	-3.2915731e-18	-5.124409e-18	0.2945243	3.6324666	0.66	1e-07	1.28e-07	0
0	0.06441873	-0.13644452	0	-3.29286e-18	-5.1256156e-18	0.2945243	3.7306414	0.66	1e-07	1.28e-07	0
0	0.09683764	-0.17908506	0	-3.2962206e-18	-5.126143e-18	0.2945243	3.828816	0.66	1e-07	1.28e-07	0
0	0.13424627	-0.21840216	0	-3.3021675e-18	-5.1256193e-18	0.2945243	3.9269907	0.66	1e-07	1.28e-07	0
0	0.1754377	-0.25309157	0	-3.3107217e-18	-5.1241262e-18	0.2945243	4.0251656	0.66	1e-07	1.28e-07	0
0	0.21899585	-0.28241128	0	-3.32138e-18	-5.122186e-18	0.2945243	4.12334	0.66	1e-07	1.28e-07	0
0	0.26380894	-0.30628395	0	-3.333319e-18	-5.1203808e-18	0.2945243	4.221515	0.66	1e-07	1.28e-07	0
0	0.30922446	-0.32500988	0	-3.3456627e-18	-5.1190593e-18	0.2945243	4.3196898	0.66	1e-07	1.28e-07	0
0	0.35492423	-0.33896866	0	-3.3576554e-18	-5.118314e-18	0.2945243	4.417865	0.66	1e-07	1.28e-07	0
0	0.40076894	-0.34847945	0	-3.368722e-18	-5.118082e-18	0.2945243	4.5160394	0.66	1e-07	1.28e-07	0
0	0.44665697	-0.35374728	0	-3.3784714e-18	-5.118254e-18	0.2945243	4.6142144	0.66	1e-07	1.28e-07	0
0	0.49250934	-0.3548922	0	-3.3866778e-18	-5.11873e-18	0.2945243	4.712389	0.66	1e-07	1.28e-07	0
0	0.5382434	-0.35195494	0	-3.3932611e-18	-5.119441e-18	0.2945243	4.8105636	0.66	1e-07	1.28e-07	0
0	0.5837759	-0.34490266	0	-3.3982877e-18	-5.120357e-18	0.2945243	4.9087386	0.66	1e-07	1.28e-07	0
0	0.6290226	-0.33362463	0	-3.4019734e-18	-5.1214635e-18	0.2945243	5.006913	0.66	1e-07	1.28e-07	0
0	0.6738562	-0.3179209	0	-3.4046942e-18	-5.122727e-18	0.2945243	5.105088	0.66	1e-07	1.28e-07	0
0	0.7180366	-0.2975294	0	-3.4069845e-18	-5.1240385e-18	0.2945243	5.203263	0.66	1e-07	1.28e-07	0
0	0.7610842	-0.27221158	0	-3.4094919e-18	-5.125169e-18	0.2945243	5.3014374	0.66	1e-07	1.28e-07	0
0	0.8021765	-0.24195533	0	-3.4128639e-18	-5.1257884e-18	0.2945243	5.3996124	0.66	1e-07	1.28e-07	0
0	0.84018457	-0.20720427	0	-3.4175463e-18	-5.1256296e-18	0.2945243	5.497787	0.66	1e-07	1.28e-07	0
0	0.87399894	-0.1689137	0	-3.4235949e-18	-5.1247086e-18	0.2945243	5.595962	0.66	1e-07	1.28e-07	0
0	0.9029319	-0.12824349	0	-3.430634e-18	-5.123347e-18	0.2945243	5.6941366	0.66	1e-07	1.28e-07	0
0	0.9268378	-0.086171634	0	-3.4380006e-18	-5.1219433e-18	0.2945243	5.7923117	0.66	1e-07	1.28e-07	0
0	0.9459145	-0.043314863	0	-3.4449529e-18	-5.120762e-18	0.2945243	5.8904862	0.66	1e-07	1.28e-07	0
0	0.96047086	5.9084404e-09	0	-3.4508302e-18	-5.119886e-18	0.2945243	5.988661	0.66	1e-07	1.28e-07	0
0	0.97077525	0.04361268	0	-3.455119e-18	-5.1192823e-18	0.2945243	6.086836	0.66	1e-07	1.28e-07	0
0	0.97701347	0.08742819	0	-3.4574683e-18	-5.1188802e-18	0.2945243	6.1850104	0.66	1e-07	1.28e-07	0
0	0.9792882	0.1313674	0	-3.4576753e-18	-5.118624e-18	0.2945243	6.2831855	0.66	1e-07	1.28e-07	0
0	0.96509457	0.17478159	0	-3.4508253e-18	-5.1193166e-18	0.3926991	0	0.66	1e-07	1.28e-07	0
0	0.96353257	0.21883054	0	-3.4485387e-18	-5.119138e-18	0.3926991	0.09817477	0.66	1e-07	1.28e-07	0
0	0.957993	0.26285887	0	-3.4441327e-18	-5.1191284e-18	0.3926991	0.19634955	0.66	1e-07	1.28e-07	0
0	0.94836766	0.3068026	0	-3.4378102e-18	-5.1193625e-18	0.3926991	0.2945243	0.66	1e-07	1.28e-07	0
0	0.93446946	0.35056555	0	-3.429931e-18	-5.1199304e-18	0.3926991	0.3926991	0.66	1e-07	1.28e-07	0
0	0.91601646	0.39400926	0	-3.4210161e-18	-5.12089e-18	0.3926991	0.49087384	0.66	1e-07	1.28e-07	0
0	0.89268047	0.4368304	0	-3.4117455e-18	-5.1221786e-18	0.3926991	0.5890486	0.66	1e-07	1.28e-07	0
0	0.8642177	0.47843367	0	-3.4028906e-18	-5.123538e-18	0.3926991	0.6872234	0.66	1e-07	1.28e-07	0
0	0.83072513	0.5178393	0	-3.395163e-18	-5.124541e-18	0.3926991	0.7853982	0.66	1e-07	1.28e-07	0
0	0.79285383	0.55383474	0	-3.3889929e-18	-5.1248053e-18	0.3926991	0.88357294	0.66	1e-07	1.28e-07	0
0	0.7517286	0.58537495	0	-3.3843625e-18	-5.124258e-18	0.3926991	0.9817477	0.66	1e-07	1.28e-07	0
0	0.708525	0.6119383	0	-3.380838e-18	-5.123155e-18	0.3926991	1.0799224	0.66	1e-07	1.28e-07	0
0	0.66411495	0.6335068	0	-3.3777635e-18	-5.1218486e-18	0.3926991	1.1780972	0.66	1e-07	1.28e-07	0
0	0.6190022	0.65031415	0	-3.374473e-18	-5.120599e-18	0.3926991	1.276272	0.66	1e-07	1.28e-07	0
0	0.5734367	0.6626333	0	-3.3704165e-18	-5.119535e-18	0.3926991	1.3744467	0.66	1e-07	1.28e-07	0
0	0.52754885	0.670664	0	-3.3652073e-18	-5.1187016e-18	0.3926991	1.4726216	0.66	1e-07	1.28e-07	0
0	0.4814224	0.674526	0	-3.3586252e-18	-5.1181176e-18	0.3926991	1.5707964	0.66	1e-07	1.28e-07	0
0	0.4351426	0.6742511	0	-3.3506036e-18	-5.1178157e-18	0.3926991	1.6689711	0.66	1e-07	1.28e-07	0
0	0.38879108	0.6697952	0	-3.3412247e-18	-5.1178595e-18	0.3926991	1.7671459	0.66	1e-07	1.28e-07	0
0	0.34245154	0.66103476	0	-3.3307205e-18	-5.1183455e-18	0.3926991	1.8653207	0.66	1e-07	1.28e-07	0
0	0.29621282	0.6477515	0	-3.319496e-18	-5.119375e-18	0.3926991	1.9634954	0.66	1e-07	1.28e-07	0
0	0.25022417	0.6296163	0	-3.3081434e-18	-5.1209887e-18	0.3926991	2.06167	0.66	1e-07	1.28e-07	0
0	0.20481071	0.6062302	0	-3.2974414e-18	-5.123059e-18	0.3926991	2.1598449	0.66	1e-07	1.28e-07	0
0	0.16065224	0.57727647	0	-3.2882936e-18	-5.1251867e-18	0.3926991	2.2580197	0.66	1e-07	1.28e-07	0
0	0.11892297	0.5428429	0	-3.281531e-18	-5.1267393e-18	0.3926991	2.3561945	0.66	1e-07	1.28e-07	0
0	0.08110475	0.5037153	0	-3.2776378e-18	-5.127192e-18	0.3926991	2.4543693	0.66	1e-07	1.28e-07	0
0	0.048432767	0.46125355	0	-3.2765358e-18	-5.126533e-18	0.3926991	2.552544	0.66	1e-07	1.28e-07	0
0	0.021428116	0.41681522	0	-3.2776416e-18	-5.12522e-18	0.3926991	2.6507187	0.66	1e-07	1.28e-07	0
0	-4.4592002e-10	0.3713397	0	-3.2801343e-18	-5.12379e-18	0.3926991	2.7488935	0.66	1e-07	1.28e-07	0
0	-0.016202023	0.32532796	0	-3.2832209e-18	-5.1225893e-18	0.3926991	2.8470683	0.66	1e-07	1.28e-07	0
0	-0.027527245	0.27900502	0	-3.286264e-18	-5.1217547e-18	0.3926991	2.9452431	0.66	1e-07	1.28e-07	0
0	-0.03422624	0.23248643	0	-3.2888234e-18	-5.1213055e-18	0.3926991	3.043418	0.66	1e-07	1.28e-07	0
0	-0.036439117	0.18585788	0	-3.2906421e-18	-5.1212183e-18	0.3926991	3.1415927	0.66	1e-07	1.28e-07	0
0	-0.034212176	0.1392062	0	-3.2916352e-18	-5.1214747e-18	0.3926991	3.2397673	0.66	1e-07	1.28e-07	0
0	-0.027503652	0.092614725	0	-3.291874e-18	-5.122072e-18	0.3926991	3.3379421	0.66	1e-07	1.28e-07	0
0	-0.016179582	0.046172544	0	-3.2916025e-18	-5.1230116e-18	0.3926991	3.436117	0.66	1e-07	1.28e-07	0
0	2.6755202e-09	-2.2296003e-09	0	-3.2912441e-18	-5.1242536e-18	0.3926991	3.5342917	0.66	1e-07	1.28e-07	0
0	0.021362763	-0.045660924	0	-3.2914038e-18	-5.125642e-18	0.3926991	3.6324666	0.66	1e-07	1.28e-07	0
0	0.048217896	-0.09029317	0	-3.2928331e-18	-5.126843e-18	0.3926991	3.7306414	0.66	1e-07	1.28e-07	0
0	0.08061129	-0.13296296	0	-3.2962835e-18	-5.1273766e-18	0.3926991	3.828816	0.66	1e-07	1.28e-07	0
0	0.11798871	-0.17233276	0	-3.3022622e-18	-5.126874e-18	0.3926991	3.9269907	0.66	1e-07	1.28e-07	0
0	0.15915214	-0.20710233	0	-3.3107935e-18	-5.1254137e-18	0.3926991	4.0251656	0.66	1e-07	1.28e-07	0
0	0.2026957	-0.23652963	0	-3.32138e-18	-5.123504e-18	0.3926991	4.12334	0.66	1e-07	1.28e-07	0
0	0.24750699	-0.26052797	0	-3.333208e-18	-5.1217233e-18	0.3926991	4.221515	0.66	1e-07	1.28e-07	0
0	0.2929334	-0.27939248	0	-3.3454075e-18	-5.1204143e-18	0.3926991	4.3196898	0.66	1e-07	1.28e-07	0
0	0.3386581	-0.29350042	0	-3.3572275e-18	-5.119669e-18	0.3926991	4.417865	0.66	1e-07	1.28e-07	0
0	0.3845292	-0.30316317	0	-3.368096e-18	-5.119427e-18	0.3926991	4.5160394	0.66	1e-07	1.28e-07	0
0	0.43045527	-0.30859044	0	-3.377622e-18	-5.11958e-18	0.3926991	4.6142144	0.66	1e-07	1.28e-07	0
0	0.47635424	-0.3098993	0	-3.3855816e-18	-5.1200267e-18	0.3926991	4.712389	0.66	1e-07	1.28e-07	0
0	0.52214134	-0.3071306	0	-3.3918963e-18	-5.1207034e-18	0.3926991	4.8105636	0.66	1e-07	1.28e-07	0
0	0.5677378	-0.30025256	0	-3.3966309e-18	-5.121579e-18	0.3926991	4.9087386	0.66	1e-07	1.28e-07	0