# t (s)	mx ()	my ()	mz ()	E_total (J)	E_Zeeman (J)	island1_magAngle (rad)	island2_magAngle (rad)	roundness ()	size (m)	islands_distance (m)	islands_angle (rad)	Cell_size (m)
0	0.9980888	-3.0411897e-09	0	-4.030292e-18	-5.787317e-18	0	0	0.81	1e-07	1.28e-07	0	4e-09
0	0.9959152	0.045827758	0	-4.02963e-18	-5.787331e-18	0	0.09817477	0.81	1e-07	1.28e-07	0	4e-09
0	0.989398	0.09133562	0	-4.027669e-18	-5.7873745e-18	0	0.19634955	0.81	1e-07	1.28e-07	0	4e-09
0	0.97854865	0.13619524	0	-4.0244723e-18	-5.787442e-18	0	0.2945243	0.81	1e-07	1.28e-07	0	4e-09
0	0.9633955	0.18005495	0	-4.020143e-18	-5.7875263e-18	0	0.3926991	0.81	1e-07	1.28e-07	0	4e-09
0	0.9439924	0.22254516	0	-4.0148133e-18	-5.7876173e-18	0	0.49087384	0.81	1e-07	1.28e-07	0	4e-09
0	0.9204348	0.26326376	0	-4.008631e-18	-5.7876967e-18	0	0.5890486	0.81	1e-07	1.28e-07	0	4e-09
0	0.8928694	0.3017953	0	-4.0017464e-18	-5.7877435e-18	0	0.6872234	0.81	1e-07	1.28e-07	0	4e-09
0	0.86150897	0.33771244	0	-3.9943e-18	-5.787733e-18	0	0.7853982	0.81	1e-07	1.28e-07	0	4e-09
0	0.82663	0.3706047	0	-3.986408e-18	-5.787648e-18	0	0.88357294	0.81	1e-07	1.28e-07	0	4e-09
0	0.78857464	0.40008408	0	-3.9781597e-18	-5.7874734e-18	0	0.9817477	0.81	1e-07	1.28e-07	0	4e-09
0	0.74773276	0.4258162	0	-3.9696046e-18	-5.787209e-18	0	1.0799224	0.81	1e-07	1.28e-07	0	4e-09
0	0.7045324	0.44751856	0	-3.9607658e-18	-5.7868666e-18	0	1.1780972	0.81	1e-07	1.28e-07	0	4e-09
0	0.6594123	0.4649746	0	-3.9516428e-18	-5.7864704e-18	0	1.276272	0.81	1e-07	1.28e-07	0	4e-09
0	0.6128102	0.47802502	0	-3.9422233e-18	-5.7860544e-18	0	1.3744467	0.81	1e-07	1.28e-07	0	4e-09
0	0.56515145	0.48655957	0	-3.9324977e-18	-5.7856552e-18	0	1.4726216	0.81	1e-07	1.28e-07	0	4e-09
0	0.51684344	0.4905055	0	-3.9224764e-18	-5.785313e-18	0	1.5707964	0.81	1e-07	1.28e-07	0	4e-09
0	0.468284	0.4898153	0	-3.9121933e-18	-5.7850626e-18	0	1.6689711	0.81	1e-07	1.28e-07	0	4e-09
0	0.41986904	0.48446116	0	-3.901718e-18	-5.7849273e-18	0	1.7671459	0.81	1e-07	1.28e-07	0	4e-09
0	0.37200025	0.4744364	0	-3.8911564e-18	-5.784924e-18	0	1.8653207	0.81	1e-07	1.28e-07	0	4e-09
0	0.32510084	0.45975873	0	-3.8806463e-18	-5.7850535e-18	0	1.9634954	0.81	1e-07	1.28e-07	0	4e-09
0	0.27961978	0.4404821	0	-3.8703487e-18	-5.785301e-18	0	2.06167	0.81	1e-07	1.28e-07	0	4e-09
0	0.23602839	0.41671026	0	-3.8604387e-18	-5.7856437e-18	0	2.1598449	0.81	1e-07	1.28e-07	0	4e-09
0	0.19481827	0.38860908	0	-3.8510915e-18	-5.786046e-18	0	2.2580197	0.81	1e-07	1.28e-07	0	4e-09
0	0.15648381	0.3564177	0	-3.8424653e-18	-5.786469e-18	0	2.3561945	0.81	1e-07	1.28e-07	0	4e-09
0	0.12150412	0.32045	0	-3.8346964e-18	-5.7868786e-18	0	2.4543693	0.81	1e-07	1.28e-07	0	4e-09
0	0.09032105	0.28108907	0	-3.827888e-18	-5.7872492e-18	0	2.552544	0.81	1e-07	1.28e-07	0	4e-09
0	0.063322864	0.23877475	0	-3.8221042e-18	-5.7875627e-18	0	2.6507187	0.81	1e-07	1.28e-07	0	4e-09
0	0.040830135	0.19398256	0	-3.817382e-18	-5.787817e-18	0	2.7488935	0.81	1e-07	1.28e-07	0	4e-09
0	0.023095481	0.14720955	0	-3.8137237e-18	-5.7880065e-18	0	2.8470683	0.81	1e-07	1.28e-07	0	4e-09
0	0.010304374	0.09895674	0	-3.8111284e-18	-5.788141e-18	0	2.9452431	0.81	1e-07	1.28e-07	0	4e-09
0	0.0025818986	0.04972248	0	-3.809578e-18	-5.7882183e-18	0	3.043418	0.81	1e-07	1.28e-07	0	4e-09
0	-4.999948e-09	-3.2894396e-11	0	-3.809063e-18	-5.7882443e-18	0	3.1415927	0.81	1e-07	1.28e-07	0	4e-09
0	0.0025818993	-0.04972246	0	-3.8095774e-18	-5.7882183e-18	0	3.2397673	0.81	1e-07	1.28e-07	0	4e-09
0	0.010304409	-0.098956786	0	-3.811128e-18	-5.7881397e-18	0	3.3379421	0.81	1e-07	1.28e-07	0	4e-09
0	0.023095498	-0.1472096	0	-3.8137253e-18	-5.7880077e-18	0	3.436117	0.81	1e-07	1.28e-07	0	4e-09
0	0.04083002	-0.19398265	0	-3.8173815e-18	-5.7878162e-18	0	3.5342917	0.81	1e-07	1.28e-07	0	4e-09
0	0.06332218	-0.2387742	0	-3.8221042e-18	-5.787564e-18	0	3.6324666	0.81	1e-07	1.28e-07	0	4e-09
0	0.09032074	-0.28108895	0	-3.827888e-18	-5.7872492e-18	0	3.7306414	0.81	1e-07	1.28e-07	0	4e-09
0	0.12150391	-0.3204499	0	-3.834697e-18	-5.7868795e-18	0	3.828816	0.81	1e-07	1.28e-07	0	4e-09
0	0.15648465	-0.35641795	0	-3.8424653e-18	-5.786469e-18	0	3.9269907	0.81	1e-07	1.28e-07	0	4e-09
0	0.19481783	-0.38860905	0	-3.8510907e-18	-5.7860453e-18	0	4.0251656	0.81	1e-07	1.28e-07	0	4e-09
0	0.23602837	-0.4167102	0	-3.860439e-18	-5.7856437e-18	0	4.12334	0.81	1e-07	1.28e-07	0	4e-09
0	0.27961934	-0.44048208	0	-3.870349e-18	-5.7853024e-18	0	4.221515	0.81	1e-07	1.28e-07	0	4e-09
0	0.32510126	-0.45975867	0	-3.8806467e-18	-5.7850535e-18	0	4.3196898	0.81	1e-07	1.28e-07	0	4e-09
0	0.37200028	-0.4744364	0	-3.8911573e-18	-5.784924e-18	0	4.417865	0.81	1e-07	1.28e-07	0	4e-09
0	0.41986895	-0.4844612	0	-3.901718e-18	-5.7849273e-18	0	4.5160394	0.81	1e-07	1.28e-07	0	4e-09
0	0.46828464	-0.489815	0	-3.9121933e-18	-5.7850626e-18	0	4.6142144	0.81	1e-07	1.28e-07	0	4e-09
0	0.51684356	-0.49050543	0	-3.9224756e-18	-5.7853128e-18	0	4.712389	0.81	1e-07	1.28e-07	0	4e-09
0	0.565151	-0.4865598	0	-3.9324977e-18	-5.7856552e-18	0	4.8105636	0.81	1e-07	1.28e-07	0	4e-09
0	0.6128104	-0.478025	0	-3.9422224e-18	-5.786054e-18	0	4.9087386	0.81	1e-07	1.28e-07	0	4e-09
0	0.6594118	-0.46497488	0	-3.9516424e-18	-5.7864704e-18	0	5.006913	0.81	1e-07	1.28e-07	0	4e-09
0	0.7045326	-0.44751832	0	-3.960766e-18	-5.7868666e-18	0	5.105088	0.81	1e-07	1.28e-07	0	4e-09
0	0.74773306	-0.42581588	0	-3.969605e-18	-5.787209e-18	0	5.203263	0.81	1e-07	1.28e-07	0	4e-09
0	0.78857374	-0.4000851	0	-3.9781585e-18	-5.7874726e-18	0	5.3014374	0.81	1e-07	1.28e-07	0	4e-09
0	0.82663083	-0.37060228	0	-3.986409e-18	-5.787648e-18	0	5.3996124	0.81	1e-07	1.28e-07	0	4e-09
0	0.861509	-0.33771244	0	-3.9943e-18	-5.787733e-18	0	5.497787	0.81	1e-07	1.28e-07	0	4e-09
0	0.89286953	-0.3017952	0	-4.0017464e-18	-5.7877435e-18	0	5.595962	0.81	1e-07	1.28e-07	0	4e-09
0	0.9204343	-0.26326466	0	-4.0086314e-18	-5.787697e-18	0	5.6941366	0.81	1e-07	1.28e-07	0	4e-09
0	0.94399244	-0.22254497	0	-4.0148137e-18	-5.7876177e-18	0	5.7923117	0.81	1e-07	1.28e-07	0	4e-09
0	0.9633953	-0.18005575	0	-4.0201437e-18	-5.787527e-18	0	5.8904862	0.81	1e-07	1.28e-07	0	4e-09
0	0.97854877	-0.13619417	0	-4.0244727e-18	-5.7874424e-18	0	5.988661	0.81	1e-07	1.28e-07	0	4e-09
0	0.98939806	-0.09133542	0	-4.0276698e-18	-5.7873754e-18	0	6.086836	0.81	1e-07	1.28e-07	0	4e-09
0	0.99591523	-0.045827597	0	-4.02963e-18	-5.787332e-18	0	6.1850104	0.81	1e-07	1.28e-07	0	4e-09
0	0.99808866	-3.99487e-09	0	-4.030292e-18	-5.787317e-18	0	6.2831855	0.81	1e-07	1.28e-07	0	4e-09
0	0.99591523	0.045827564	0	-4.02963e-18	-5.787331e-18	0.09817477	0	0.81	1e-07	1.28e-07	0	4e-09
0	0.993886	0.09168535	0	-4.028527e-18	-5.7873084e-18	0.09817477	0.09817477	0.81	1e-07	1.28e-07	0	4e-09
0	0.98750776	0.13724907	0	-4.0261304e-18	-5.7873133e-18	0.09817477	0.19634955	0.81	1e-07	1.28e-07	0	4e-09
0	0.9767886	0.1821946	0	-4.0225115e-18	-5.7873505e-18	0.09817477	0.2945243	0.81	1e-07	1.28e-07	0	4e-09
0	0.961754	0.22616872	0	-4.017776e-18	-5.7874113e-18	0.09817477	0.3926991	0.81	1e-07	1.28e-07	0	4e-09
0	0.9424554	0.26879707	0	-4.01206e-18	-5.787486e-18	0.09817477	0.49087384	0.81	1e-07	1.28e-07	0	4e-09
0	0.91898465	0.30967927	0	-4.0055154e-18	-5.7875586e-18	0.09817477	0.5890486	0.81	1e-07	1.28e-07	0	4e-09
0	0.89148796	0.34839287	0	-3.998296e-18	-5.7876037e-18	0.09817477	0.6872234	0.81	1e-07	1.28e-07	0	4e-09
0	0.8601754	0.38450888	0	-3.990547e-18	-5.7876e-18	0.09817477	0.7853982	0.81	1e-07	1.28e-07	0	4e-09
0	0.8253219	0.41761303	0	-3.982387e-18	-5.787526e-18	0.09817477	0.88357294	0.81	1e-07	1.28e-07	0	4e-09
0	0.7872719	0.4473107	0	-3.973906e-18	-5.787365e-18	0.09817477	0.9817477	0.81	1e-07	1.28e-07	0	4e-09
0	0.7464195	0.47326013	0	-3.965159e-18	-5.7871185e-18	0.09817477	1.0799224	0.81	1e-07	1.28e-07	0	4e-09
0	0.7031915	0.4951797	0	-3.956166e-18	-5.7867955e-18	0.09817477	1.1780972	0.81	1e-07	1.28e-07	0	4e-09
0	0.6580302	0.51284856	0	-3.9469274e-18	-5.7864216e-18	0.09817477	1.276272	0.81	1e-07	1.28e-07	0	4e-09
0	0.6113761	0.5261054	0	-3.9374298e-18	-5.7860295e-18	0.09817477	1.3744467	0.81	1e-07	1.28e-07	0	4e-09
0	0.563656	0.5348386	0	-3.9276657e-18	-5.785659e-18	0.09817477	1.4726216	0.81	1e-07	1.28e-07	0	4e-09
0	0.51528	0.5389739	0	-3.9176407e-18	-5.7853484e-18	0.09817477	1.5707964	0.81	1e-07	1.28e-07	0	4e-09
0	0.46664605	0.5384638	0	-3.907392e-18	-5.7851316e-18	0.09817477	1.6689711	0.81	1e-07	1.28e-07	0	4e-09
0	0.4181499	0.5332799	0	-3.8969885e-18	-5.785037e-18	0.09817477	1.7671459	0.81	1e-07	1.28e-07	0	4e-09
0	0.37019408	0.52341425	0	-3.886537e-18	-5.785076e-18	0.09817477	1.8653207	0.81	1e-07	1.28e-07	0	4e-09
0	0.3232047	0.5088826	0	-3.8761766e-18	-5.7852487e-18	0.09817477	1.9634954	0.81	1e-07	1.28e-07	0	4e-09
0	0.27762982	0.4897381	0	-3.8660697e-18	-5.7855407e-18	0.09817477	2.06167	0.81	1e-07	1.28e-07	0	4e-09
0	0.23394637	0.46608302	0	-3.856391e-18	-5.785921e-18	0.09817477	2.1598449	0.81	1e-07	1.28e-07	0	4e-09
0	0.19263996	0.43808118	0	-3.8473196e-18	-5.786359e-18	0.09817477	2.2580197	0.81	1e-07	1.28e-07	0	4e-09
0	0.1542154	0.4059712	0	-3.8390164e-18	-5.786809e-18	0.09817477	2.3561945	0.81	1e-07	1.28e-07	0	4e-09
0	0.119152546	0.3700671	0	-3.8316147e-18	-5.7872306e-18	0.09817477	2.4543693	0.81	1e-07	1.28e-07	0	4e-09
0	0.08789644	0.33075267	0	-3.8252206e-18	-5.7875987e-18	0.09817477	2.552544	0.81	1e-07	1.28e-07	0	4e-09
0	0.06083744	0.28846782	0	-3.8198944e-18	-5.787892e-18	0.09817477	2.6507187	0.81	1e-07	1.28e-07	0	4e-09
0	0.03829993	0.24369375	0	-3.815667e-18	-5.788103e-18	0.09817477	2.7488935	0.81	1e-07	1.28e-07	0	4e-09
0	0.020535309	0.19692886	0	-3.8125404e-18	-5.7882336e-18	0.09817477	2.8470683	0.81	1e-07	1.28e-07	0	4e-09
0	0.0077279503	0.14867844	0	-3.8104997e-18	-5.788291e-18	0.09817477	2.9452431	0.81	1e-07	1.28e-07	0	4e-09
0	-1.7105086e-09	0.09944367	0	-3.80952e-18	-5.7882828e-18	0.09817477	3.043418	0.81	1e-07	1.28e-07	0	4e-09
0	-0.0025819	0.049722467	0	-3.809578e-18	-5.7882183e-18	0.09817477	3.1415927	0.81	1e-07	1.28e-07	0	4e-09
0	4.999948e-09	2.1792537e-10	0	-3.8106565e-18	-5.788106e-18	0.09817477	3.2397673	0.81	1e-07	1.28e-07	0	4e-09
0	0.007717002	-0.049235594	0	-3.8127492e-18	-5.787953e-18	0.09817477	3.3379421	0.81	1e-07	1.28e-07	0	4e-09
0	0.02049313	-0.09749466	0	-3.8158565e-18	-5.7877625e-18	0.09817477	3.436117	0.81	1e-07	1.28e-07	0	4e-09
0	0.038200352	-0.14428201	0	-3.819985e-18	-5.7875354e-18	0.09817477	3.5342917	0.81	1e-07	1.28e-07	0	4e-09
0	0.060653668	-0.18910083	0	-3.8251334e-18	-5.7872666e-18	0.09817477	3.6324666	0.81	1e-07	1.28e-07	0	4e-09
0	0.08760084	-0.23145755	0	-3.831291e-18	-5.7869556e-18	0.09817477	3.7306414	0.81	1e-07	1.28e-07	0	4e-09
0	0.118723325	-0.2708782	0	-3.838423e-18	-5.786606e-18	0.09817477	3.828816	0.81	1e-07	1.28e-07	0	4e-09
0	0.15363646	-0.30692512	0	-3.846462e-18	-5.7862293e-18	0.09817477	3.9269907	0.81	1e-07	1.28e-07	0	4e-09
0	0.19190125	-0.33921498	0	-3.8553073e-18	-5.7858484e-18	0.09817477	4.0251656	0.81	1e-07	1.28e-07	0	4e-09
0	0.23304193	-0.36743274	0	-3.8648265e-18	-5.785494e-18	0.09817477	4.12334	0.81	1e-07	1.28e-07	0	4e-09
0	0.27656576	-0.3913388	0	-3.8748622e-18	-5.785202e-18	0.09817477	4.221515	0.81	1e-07	1.28e-07	0	4e-09
0	0.321984	-0.4107646	0	-3.8852417e-18	-5.785003e-18	0.09817477	4.3196898	0.81	1e-07	1.28e-07	0	4e-09
0	0.36882567	-0.4256049	0	-3.895792e-18	-5.784921e-18	0.09817477	4.417865	0.81	1e-07	1.28e-07	0	4e-09
0	0.41664362	-0.4358038	0	-3.906355e-18	-5.7849658e-18	0.09817477	4.5160394	0.81	1e-07	1.28e-07	0	4e-09
0	0.46501526	-0.4413419	0	-3.9167957e-18	-5.785138e-18	0.09817477	4.6142144	0.81	1e-07	1.28e-07	0	4e-09
0	0.5135381	-0.44222528	0	-3.927007e-18	-5.7854207e-18	0.09817477	4.712389	0.81	1e-07	1.28e-07	0	4e-09
0	0.56181836	-0.43847975	0	-3.936922e-18	-5.7857892e-18	0.09817477	4.8105636	0.81	1e-07	1.28e-07	0	4e-09
0	0.6094584	-0.43015233	0	-3.946505e-18	-5.7862107e-18	0.09817477	4.9087386	0.81	1e-07	1.28e-07	0	4e-09
0	0.6560516	-0.41731444	0	-3.955749e-18	-5.7866445e-18	0.09817477	5.006913	0.81	1e-07	1.28e-07	0	4e-09
0	0.7011753	-0.40007433	0	-3.9646605e-18	-5.787055e-18	0.09817477	5.105088	0.81	1e-07	1.28e-07	0	4e-09
0	0.744393	-0.3785891	0	-3.9732537e-18	-5.7874084e-18	0.09817477	5.203263	0.81	1e-07	1.28e-07	0	4e-09
0	0.78526634	-0.35307366	0	-3.9815292e-18	-5.7876827e-18	0.09817477	5.3014374	0.81	1e-07	1.28e-07	0	4e-09
0	0.82337207	-0.32380265	0	-3.9894673e-18	-5.787863e-18	0.09817477	5.3996124	0.81	1e-07	1.28e-07	0	4e-09
0	0.85831934	-0.2911098	0	-3.9970165e-18	-5.7879507e-18	0.09817477	5.497787	0.81	1e-07	1.28e-07	0	4e-09
0	0.8897678	-0.25537267	0	-4.0040943e-18	-5.7879565e-18	0.09817477	5.595962	0.81	1e-07	1.28e-07	0	4e-09
0	0.91743493	-0.21700728	0	-4.010587e-18	-5.7879e-18	0.09817477	5.6941366	0.81	1e-07	1.28e-07	0	4e-09
0	0.9411106	-0.17642953	0	-4.016357e-18	-5.7878034e-18	0.09817477	5.7923117	0.81	1e-07	1.28e-07	0	4e-09
0	0.9606434	-0.13405481	0	-4.02126e-18	-5.787689e-18	0.09817477	5.8904862	0.81	1e-07	1.28e-07	0	4e-09
0	0.9759358	-0.09028044	0	-4.02515e-18	-5.7875726e-18	0.09817477	5.988661	0.81	1e-07	1.28e-07	0	4e-09
0	0.9869298	-0.045479264	0	-4.027901e-18	-5.787468e-18	0.09817477	6.086836	0.81	1e-07	1.28e-07	0	4e-09
0	0.99359447	-7.8535367e-10	0	-4.029415e-18	-5.787386e-18	0.09817477	6.1850104	0.81	1e-07	1.28e-07	0	4e-09
0	0.99591523	0.045827415	0	-4.029631e-18	-5.787332e-18	0.09817477	6.2831855	0.81	1e-07	1.28e-07	0	4e-09
0	0.98939794	0.091335684	0	-4.0276698e-18	-5.7873754e-18	0.19634955	0	0.81	1e-07	1.28e-07	0	4e-09
0	0.98750764	0.13724929	0	-4.026131e-18	-5.7873133e-18	0.19634955	0.09817477	0.81	1e-07	1.28e-07	0	4e-09
0	0.98125637	0.18290055	0	-4.0233176e-18	-5.7872897e-18	0.19634955	0.19634955	0.81	1e-07	1.28e-07	0	4e-09
0	0.9706502	0.22795834	0	-4.0193024e-18	-5.787303e-18	0.19634955	0.2945243	0.81	1e-07	1.28e-07	0	4e-09
0	0.95571125	0.27207115	0	-4.0141963e-18	-5.7873497e-18	0.19634955	0.3926991	0.81	1e-07	1.28e-07	0	4e-09
0	0.9364886	0.31486103	0	-4.008139e-18	-5.7874188e-18	0.19634955	0.49087384	0.81	1e-07	1.28e-07	0	4e-09
0	0.9130718	0.3559251	0	-4.0012844e-18	-5.7874924e-18	0.19634955	0.5890486	0.81	1e-07	1.28e-07	0	4e-09
0	0.885605	0.39483804	0	-3.9937926e-18	-5.7875487e-18	0.19634955	0.6872234	0.81	1e-07	1.28e-07	0	4e-09
0	0.8542968	0.43116686	0	-3.9858107e-18	-5.7875615e-18	0.19634955	0.7853982	0.81	1e-07	1.28e-07	0	4e-09
0	0.8194259	0.46448728	0	-3.97746e-18	-5.7875065e-18	0.19634955	0.88357294	0.81	1e-07	1.28e-07	0	4e-09
0	0.7813364	0.49440458	0	-3.968832e-18	-5.7873696e-18	0.19634955	0.9817477	0.81	1e-07	1.28e-07	0	4e-09
0	0.7404251	0.52057135	0	-3.959981e-18	-5.7871475e-18	0.19634955	1.0799224	0.81	1e-07	1.28e-07	0	4e-09
0	0.697123	0.54270154	0	-3.950929e-18	-5.7868505e-18	0.19634955	1.1780972	0.81	1e-07	1.28e-07	0	4e-09
0	0.6518748	0.5605731	0	-3.941673e-18	-5.786503e-18	0.19634955	1.276272	0.81	1e-07	1.28e-07	0	4e-09
0	0.6051245	0.57402253	0	-3.9322003e-18	-5.78614e-18	0.19634955	1.3744467	0.81	1e-07	1.28e-07	0	4e-09
0	0.5573005	0.58293784	0	-3.9224996e-18	-5.7858004e-18	0.19634955	1.4726216	0.81	1e-07	1.28e-07	0	4e-09
0	0.50881463	0.5872445	0	-3.9125788e-18	-5.7855237e-18	0.19634955	1.5707964	0.81	1e-07	1.28e-07	0	4e-09
0	0.46006623	0.5868939	0	-3.9024715e-18	-5.785344e-18	0.19634955	1.6689711	0.81	1e-07	1.28e-07	0	4e-09
0	0.41145116	0.5818579	0	-3.8922483e-18	-5.785287e-18	0.19634955	1.7671459	0.81	1e-07	1.28e-07	0	4e-09
0	0.36337516	0.57212657	0	-3.882016e-18	-5.7853645e-18	0.19634955	1.8653207	0.81	1e-07	1.28e-07	0	4e-09
0	0.31626308	0.5577162	0	-3.871913e-18	-5.785575e-18	0.19634955	1.9634954	0.81	1e-07	1.28e-07	0	4e-09
0	0.27056578	0.53867775	0	-3.862103e-18	-5.785901e-18	0.19634955	2.06167	0.81	1e-07	1.28e-07	0	4e-09
0	0.22675997	0.51511264	0	-3.8527645e-18	-5.7863116e-18	0.19634955	2.1598449	0.81	1e-07	1.28e-07	0	4e-09
0	0.18534085	0.48718417	0	-3.844072e-18	-5.7867666e-18	0.19634955	2.2580197	0.81	1e-07	1.28e-07	0	4e-09
0	0.14680994	0.45513052	0	-3.8361907e-18	-5.7872223e-18	0.19634955	2.3561945	0.81	1e-07	1.28e-07	0	4e-09
0	0.11165101	0.41926578	0	-3.8292507e-18	-5.7876363e-18	0.19634955	2.4543693	0.81	1e-07	1.28e-07	0	4e-09
0	0.08031477	0.3799769	0	-3.823355e-18	-5.7879755e-18	0.19634955	2.552544	0.81	1e-07	1.28e-07	0	4e-09
0	0.053192537	0.3377045	0	-3.818562e-18	-5.7882232e-18	0.19634955	2.6507187	0.81	1e-07	1.28e-07	0	4e-09
0	0.030609788	0.29293376	0	-3.8148945e-18	-5.7883705e-18	0.19634955	2.7488935	0.81	1e-07	1.28e-07	0	4e-09
0	0.012818135	0.2461668	0	-3.8123476e-18	-5.788423e-18	0.19634955	2.8470683	0.81	1e-07	1.28e-07	0	4e-09
0	3.2894396e-09	0.19791284	0	-3.8108943e-18	-5.788391e-18	0.19634955	2.9452431	0.81	1e-07	1.28e-07	0	4e-09
0	-0.007727955	0.14867848	0	-3.8105e-18	-5.788292e-18	0.19634955	3.043418	0.81	1e-07	1.28e-07	0	4e-09
0	-0.0103043895	0.09895679	0	-3.8111284e-18	-5.788141e-18	0.19634955	3.1415927	0.81	1e-07	1.28e-07	0	4e-09
0	-0.0077169966	0.049235556	0	-3.8127497e-18	-5.787953e-18	0.19634955	3.2397673	0.81	1e-07	1.28e-07	0	4e-09
0	1.249987e-09	2.3026077e-10	0	-3.8153458e-18	-5.7877435e-18	0.19634955	3.3379421	0.81	1e-07	1.28e-07	0	4e-09
0	0.012766994	-0.048264384	0	-3.8189113e-18	-5.787519e-18	0.19634955	3.436117	0.81	1e-07	1.28e-07	0	4e-09
0	0.03045468	-0.09506726	0	-3.823444e-18	-5.7872794e-18	0.19634955	3.5342917	0.81	1e-07	1.28e-07	0	4e-09
0	0.052877165	-0.1399151	0	-3.828939e-18	-5.787019e-18	0.19634955	3.6324666	0.81	1e-07	1.28e-07	0	4e-09
0	0.07978607	-0.18231873	0	-3.835384e-18	-5.7867335e-18	0.19634955	3.7306414	0.81	1e-07	1.28e-07	0	4e-09
0	0.110862665	-0.22180533	0	-3.8427445e-18	-5.786425e-18	0.19634955	3.828816	0.81	1e-07	1.28e-07	0	4e-09
0	0.1457279	-0.2579388	0	-3.8509563e-18	-5.7860986e-18	0.19634955	3.9269907	0.81	1e-07	1.28e-07	0	4e-09
0	0.18394455	-0.29033512	0	-3.8599196e-18	-5.7857735e-18	0.19634955	4.0251656	0.81	1e-07	1.28e-07	0	4e-09
0	0.22503942	-0.31867862	0	-3.8695054e-18	-5.785477e-18	0.19634955	4.12334	0.81	1e-07	1.28e-07	0	4e-09
0	0.26852375	-0.34272724	0	-3.8795598e-18	-5.7852404e-18	0.19634955	4.221515	0.81	1e-07	1.28e-07	0	4e-09
0	0.31390876	-0.36231074	0	-3.8899136e-18	-5.7850936e-18	0.19634955	4.3196898	0.81	1e-07	1.28e-07	0	4e-09
0	0.36072487	-0.37732172	0	-3.9003985e-18	-5.785057e-18	0.19634955	4.417865	0.81	1e-07	1.28e-07	0	4e-09
0	0.40852582	-0.38770208	0	-3.9108582e-18	-5.7851432e-18	0.19634955	4.5160394	0.81	1e-07	1.28e-07	0	4e-09
0	0.45688957	-0.39343065	0	-3.9211575e-18	-5.785348e-18	0.19634955	4.6142144	0.81	1e-07	1.28e-07	0	4e-09
0	0.50541335	-0.39451215	0	-3.931194e-18	-5.7856577e-18	0.19634955	4.712389	0.81	1e-07	1.28e-07	0	4e-09
0	0.5537035	-0.39097124	0	-3.9409023e-18	-5.786047e-18	0.19634955	4.8105636	0.81	1e-07	1.28e-07	0	4e-09
0	0.6013652	-0.3828524	0	-3.9502457e-18	-5.7864824e-18	0.19634955	4.9087386	0.81	1e-07	1.28e-07	0	4e-09
0	0.64799064	-0.37022662	0	-3.9592173e-18	-5.7869274e-18	0.19634955	5.006913	0.81	1e-07	1.28e-07	0	4e-09
0	0.6931596	-0.35319933	0	-3.9678266e-18	-5.787345e-18	0.19634955	5.105088	0.81	1e-07	1.28e-07	0	4e-09
0	0.73643583	-0.3319264	0	-3.9760864e-18	-5.787703e-18	0.19634955	5.203263	0.81	1e-07	1.28e-07	0	4e-09
0	0.7773835	-0.3066172	0	-3.984001e-18	-5.7879775e-18	0.19634955	5.3014374	0.81	1e-07	1.28e-07	0	4e-09
0	0.8155798	-0.2775433	0	-3.991551e-18	-5.7881554e-18	0.19634955	5.3996124	0.81	1e-07	1.28e-07	0	4e-09
0	0.8506339	-0.24503356	0	-3.9986883e-18	-5.7882356e-18	0.19634955	5.497787	0.81	1e-07	1.28e-07	0	4e-09
0	0.8822034	-0.20946243	0	-4.005336e-18	-5.788229e-18	0.19634955	5.595962	0.81	1e-07	1.28e-07	0	4e-09
0	0.9100068	-0.17123565	0	-4.011382e-18	-5.788155e-18	0.19634955	5.6941366	0.81	1e-07	1.28e-07	0	4e-09
0	0.93382865	-0.13077259	0	-4.0166948e-18	-5.7880326e-18	0.19634955	5.7923117	0.81	1e-07	1.28e-07	0	4e-09
0	0.95351315	-0.08848742	0	-4.021132e-18	-5.787886e-18	0.19634955	5.8904862	0.81	1e-07	1.28e-07	0	4e-09
0	0.9689617	-0.044771593	0	-4.0245575e-18	-5.787735e-18	0.19634955	5.988661	0.81	1e-07	1.28e-07	0	4e-09
0	0.9801118	-7.319003e-10	0	-4.0268455e-18	-5.787591e-18	0.19634955	6.086836	0.81	1e-07	1.28e-07	0	4e-09
0	0.9869298	0.045479227	0	-4.027901e-18	-5.787468e-18	0.19634955	6.1850104	0.81	1e-07	1.28e-07	0	4e-09
0	0.989398	0.0913355	0	-4.0276698e-18	-5.7873754e-18	0.19634955	6.2831855	0.81	1e-07	1.28e-07	0	4e-09
0	0.97854877	0.13619465	0	-4.0244723e-18	-5.787442e-18	0.2945243	0	0.81	1e-07	1.28e-07	0	4e-09
0	0.97678864	0.18219441	0	-4.0225115e-18	-5.7873505e-18	0.2945243	0.09817477	0.81	1e-07	1.28e-07	0	4e-09
0	0.9706501	0.2279587	0	-4.0193024e-18	-5.787304e-18	0.2945243	0.19634955	0.81	1e-07	1.28e-07	0	4e-09
0	0.9601368	0.2731543	0	-4.0149217e-18	-5.7873026e-18	0.2945243	0.2945243	0.81	1e-07	1.28e-07	0	4e-09
0	0.9452674	0.31742886	0	-4.0094842e-18	-5.787344e-18	0.2945243	0.3926991	0.81	1e-07	1.28e-07	0	4e-09
0	0.9260895	0.36040002	0	-4.0031327e-18	-5.787417e-18	0.2945243	0.49087384	0.81	1e-07	1.28e-07	0	4e-09
0	0.9026901	0.40166265	0	-3.9960272e-18	-5.787505e-18	0.2945243	0.5890486	0.81	1e-07	1.28e-07	0	4e-09
0	0.8752124	0.44078666	0	-3.988329e-18	-5.7875813e-18	0.2945243	0.6872234	0.81	1e-07	1.28e-07	0	4e-09
0	0.8438663	0.47733247	0	-3.9801876e-18	-5.7876177e-18	0.2945243	0.7853982	0.81	1e-07	1.28e-07	0	4e-09
0	0.8089308	0.5108731	0	-3.971727e-18	-5.7875917e-18	0.2945243	0.88357294	0.81	1e-07	1.28e-07	0	4e-09
0	0.77075356	0.5410064	0	-3.9630393e-18	-5.7874837e-18	0.2945243	0.9817477	0.81	1e-07	1.28e-07	0	4e-09
0	0.72973514	0.56738216	0	-3.9541777e-18	-5.78729e-18	0.2945243	1.0799224	0.81	1e-07	1.28e-07	0	4e-09
0	0.68631184	0.5897094	0	-3.9451627e-18	-5.787022e-18	0.2945243	1.1780972	0.81	1e-07	1.28e-07	0	4e-09
0	0.6409321	0.607765	0	-3.93599e-18	-5.7867053e-18	0.2945243	1.276272	0.81	1e-07	1.28e-07	0	4e-09
0	0.59404063	0.62138647	0	-3.9266454e-18	-5.7863732e-18	0.2945243	1.3744467	0.81	1e-07	1.28e-07	0	4e-09
0	0.54607075	0.63045967	0	-3.9171146e-18	-5.786066e-18	0.2945243	1.4726216	0.81	1e-07	1.28e-07	0	4e-09
0	0.4974357	0.6349101	0	-3.907404e-18	-5.7858227e-18	0.2945243	1.5707964	0.81	1e-07	1.28e-07	0	4e-09
0	0.448535	0.6346902	0	-3.8975464e-18	-5.785678e-18	0.2945243	1.6689711	0.81	1e-07	1.28e-07	0	4e-09
0	0.399767	0.6297703	0	-3.8876116e-18	-5.7856552e-18	0.2945243	1.7671459	0.81	1e-07	1.28e-07	0	4e-09
0	0.35153776	0.62014145	0	-3.8777057e-18	-5.7857653e-18	0.2945243	1.8653207	0.81	1e-07	1.28e-07	0	4e-09
0	0.30427492	0.6058177	0	-3.8679673e-18	-5.786003e-18	0.2945243	1.9634954	0.81	1e-07	1.28e-07	0	4e-09
0	0.2584308	0.5868503	0	-3.858562e-18	-5.7863513e-18	0.2945243	2.06167	0.81	1e-07	1.28e-07	0	4e-09
0	0.2144878	0.563341	0	-3.8496634e-18	-5.786773e-18	0.2945243	2.1598449	0.81	1e-07	1.28e-07	0	4e-09
0	0.17293455	0.53545034	0	-3.8414503e-18	-5.7872294e-18	0.2945243	2.2580197	0.81	1e-07	1.28e-07	0	4e-09
0	0.13428603	0.50342023	0	-3.8340826e-18	-5.787669e-18	0.2945243	2.3561945	0.81	1e-07	1.28e-07	0	4e-09
0	0.099026896	0.4675661	0	-3.827691e-18	-5.788051e-18	0.2945243	2.4543693	0.81	1e-07	1.28e-07	0	4e-09
0	0.06760832	0.4282731	0	-3.8223714e-18	-5.788341e-18	0.2945243	2.552544	0.81	1e-07	1.28e-07	0	4e-09
0	0.04042701	0.38599145	0	-3.8181768e-18	-5.788521e-18	0.2945243	2.6507187	0.81	1e-07	1.28e-07	0	4e-09
0	0.017807417	0.34120718	0	-3.815123e-18	-5.7885868e-18	0.2945243	2.7488935	0.81	1e-07	1.28e-07	0	4e-09
0	4.5394266e-09	0.29442742	0	-3.813192e-18	-5.7885483e-18	0.2945243	2.8470683	0.81	1e-07	1.28e-07	0	4e-09
0	-0.012818139	0.24616683	0	-3.8123476e-18	-5.788423e-18	0.2945243	2.9452431	0.81	1e-07	1.28e-07	0	4e-09
0	-0.020535264	0.1969288	0	-3.8125404e-18	-5.7882336e-18	0.2945243	3.043418	0.81	1e-07	1.28e-07	0	4e-09
0	-0.023095457	0.14720955	0	-3.8137245e-18	-5.788007e-18	0.2945243	3.1415927	0.81	1e-07	1.28e-07	0	4e-09
0	-0.020493057	0.09749455	0	-3.8158574e-18	-5.7877633e-18	0.2945243	3.2397673	0.81	1e-07	1.28e-07	0	4e-09
0	-0.012767017	0.04826442	0	-3.8189117e-18	-5.7875193e-18	0.2945243	3.3379421	0.81	1e-07	1.28e-07	0	4e-09
0	-1.6447198e-09	-3.322334e-09	0	-3.8228743e-18	-5.787284e-18	0.2945243	3.436117	0.81	1e-07	1.28e-07	0	4e-09
0	0.017677644	-0.04681335	0	-3.827738e-18	-5.787054e-18	0.2945243	3.5342917	0.81	1e-07	1.28e-07	0	4e-09
0	0.040080987	-0.09168663	0	-3.8334987e-18	-5.786825e-18	0.2945243	3.6324666	0.81	1e-07	1.28e-07	0	4e-09
0	0.06696322	-0.13413376	0	-3.8401446e-18	-5.786587e-18	0.2945243	3.7306414	0.81	1e-07	1.28e-07	0	4e-09
0	0.098010615	-0.17368506	0	-3.847639e-18	-5.7863335e-18	0.2945243	3.828816	0.81	1e-07	1.28e-07	0	4e-09
0	0.13284472	-0.20990394	0	-3.855924e-18	-5.786071e-18	0.2945243	3.9269907	0.81	1e-07	1.28e-07	0	4e-09
0	0.17103356	-0.24240685	0	-3.8649042e-18	-5.7858107e-18	0.2945243	4.0251656	0.81	1e-07	1.28e-07	0	4e-09
0	0.21210685	-0.27087635	0	-3.8744536e-18	-5.7855775e-18	0.2945243	4.12334	0.81	1e-07	1.28e-07	0	4e-09
0	0.2555753	-0.29506844	0	-3.8844236e-18	-5.7854005e-18	0.2945243	4.221515	0.81	1e-07	1.28e-07	0	4e-09
0	0.30095395	-0.31481034	0	-3.894649e-18	-5.7853058e-18	0.2945243	4.3196898	0.81	1e-07	1.28e-07	0	4e-09
0	0.3477741	-0.3299923	0	-3.904965e-18	-5.7853144e-18	0.2945243	4.417865	0.81	1e-07	1.28e-07	0	4e-09
0	0.39558938	-0.34055397	0	-3.915218e-18	-5.785436e-18	0.2945243	4.5160394	0.81	1e-07	1.28e-07	0	4e-09
0	0.44397777	-0.34647208	0	-3.925276e-18	-5.7856693e-18	0.2945243	4.6142144	0.81	1e-07	1.28e-07	0	4e-09
0	0.49253613	-0.34774995	0	-3.93504e-18	-5.7859993e-18	0.2945243	4.712389	0.81	1e-07	1.28e-07	0	4e-09
0	0.54087245	-0.34441024	0	-3.944442e-18	-5.7864018e-18	0.2945243	4.8105636	0.81	1e-07	1.28e-07	0	4e-09
0	0.5885916	-0.33649588	0	-3.953451e-18	-5.7868456e-18	0.2945243	4.9087386	0.81	1e-07	1.28e-07	0	4e-09
0	0.6352868	-0.3240759	0	-3.96206e-18	-5.7872935e-18	0.2945243	5.006913	0.81	1e-07	1.28e-07	0	4e-09
0	0.680538	-0.307254	0	-3.9702783e-18	-5.7877108e-18	0.2945243	5.105088	0.81	1e-07	1.28e-07	0	4e-09
0	0.7239113	-0.28618154	0	-3.978123e-18	-5.788066e-18	0.2945243	5.203263	0.81	1e-07	1.28e-07	0	4e-09
0	0.7649716	-0.26106492	0	-3.985597e-18	-5.7883332e-18	0.2945243	5.3014374	0.81	1e-07	1.28e-07	0	4e-09
0	0.80329496	-0.23217124	0	-3.9926875e-18	-5.7885016e-18	0.2945243	5.3996124	0.81	1e-07	1.28e-07	0	4e-09
0	0.8384911	-0.19982408	0	-3.9993488e-18	-5.7885677e-18	0.2945243	5.497787	0.81	1e-07	1.28e-07	0	4e-09
0	0.87021494	-0.1643935	0	-4.0055076e-18	-5.788542e-18	0.2945243	5.595962	0.81	1e-07	1.28e-07	0	4e-09
0	0.89818054	-0.12628636	0	-4.0110575e-18	-5.7884416e-18	0.2945243	5.6941366	0.81	1e-07	1.28e-07	0	4e-09
0	0.9221722	-0.08591139	0	-4.0158717e-18	-5.7882894e-18	0.2945243	5.7923117	0.81	1e-07	1.28e-07	0	4e-09
0	0.9420281	-0.043685697	0	-4.019813e-18	-5.7881082e-18	0.2945243	5.8904862	0.81	1e-07	1.28e-07	0	4e-09
0	0.9576467	-2.253266e-09	0	-4.022749e-18	-5.787918e-18	0.2945243	5.988661	0.81	1e-07	1.28e-07	0	4e-09
0	0.9689615	0.044771865	0	-4.024557e-18	-5.7877344e-18	0.2945243	6.086836	0.81	1e-07	1.28e-07	0	4e-09
0	0.97593576	0.09028064	0	-4.0251494e-18	-5.787572e-18	0.2945243	6.1850104	0.81	1e-07	1.28e-07	0	4e-09
0	0.97854877	0.13619457	0	-4.024472e-18	-5.787442e-18	0.2945243	6.2831855	0.81	1e-07	1.28e-07	0	4e-09
0	0.9633954	0.18005541	0	-4.0201433e-18	-5.787527e-18	0.3926991	0	0.81	1e-07	1.28e-07	0	4e-09
0	0.9617538	0.22616953	0	-4.0177763e-18	-5.7874113e-18	0.3926991	0.09817477	0.81	1e-07	1.28e-07	0	4e-09
0	0.9557109	0.272072	0	-4.014196e-18	-5.7873493e-18	0.3926991	0.19634955	0.81	1e-07	1.28e-07	0	4e-09
0	0.9452672	0.31742936	0	-4.0094834e-18	-5.7873435e-18	0.3926991	0.2945243	0.81	1e-07	1.28e-07	0	4e-09
0	0.9304401	0.36188328	0	-4.003758e-18	-5.7873902e-18	0.3926991	0.3926991	0.81	1e-07	1.28e-07	0	4e-09
0	0.91127264	0.40505403	0	-3.997166e-18	-5.787479e-18	0.3926991	0.49087384	0.81	1e-07	1.28e-07	0	4e-09
0	0.8878521	0.4465276	0	-3.989869e-18	-5.7875884e-18	0.3926991	0.5890486	0.81	1e-07	1.28e-07	0	4e-09
0	0.86032087	0.48587012	0	-3.982034e-18	-5.7876934e-18	0.3926991	0.6872234	0.81	1e-07	1.28e-07	0	4e-09
0	0.8288929	0.5226322	0	-3.9738096e-18	-5.7877625e-18	0.3926991	0.7853982	0.81	1e-07	1.28e-07	0	4e-09
0	0.79384375	0.55639046	0	-3.965324e-18	-5.787769e-18	0.3926991	0.88357294	0.81	1e-07	1.28e-07	0	4e-09
0	0.7555313	0.58672935	0	-3.956667e-18	-5.7876942e-18	0.3926991	0.9817477	0.81	1e-07	1.28e-07	0	4e-09
0	0.71435946	0.61329633	0	-3.9478886e-18	-5.7875317e-18	0.3926991	1.0799224	0.81	1e-07	1.28e-07	0	4e-09
0	0.67076874	0.6357994	0	-3.93901e-18	-5.7872935e-18	0.3926991	1.1780972	0.81	1e-07	1.28e-07	0	4e-09
0	0.62521213	0.6540143	0	-3.930024e-18	-5.7870056e-18	0.3926991	1.276272	0.81	1e-07	1.28e-07	0	4e-09
0	0.57813996	0.6677764	0	-3.9209097e-18	-5.786702e-18	0.3926991	1.3744467	0.81	1e-07	1.28e-07	0	4e-09
0	0.52998495	0.67697465	0	-3.9116544e-18	-5.786425e-18	0.3926991	1.4726216	0.81	1e-07	1.28e-07	0	4e-09
0	0.48116294	0.68153447	0	-3.9022593e-18	-5.786212e-18	0.3926991	1.5707964	0.81	1e-07	1.28e-07	0	4e-09
0	0.43207797	0.6814068	0	-3.892757e-18	-5.7860953e-18	0.3926991	1.6689711	0.81	1e-07	1.28e-07	0	4e-09
0	0.38312626	0.6765638	0	-3.8832168e-18	-5.786099e-18	0.3926991	1.7671459	0.81	1e-07	1.28e-07	0	4e-09
0	0.33471787	0.6669953	0	-3.873742e-18	-5.786232e-18	0.3926991	1.8653207	0.81	1e-07	1.28e-07	0	4e-09
0	0.28728157	0.65271604	0	-3.8644708e-18	-5.786487e-18	0.3926991	1.9634954	0.81	1e-07	1.28e-07	0	4e-09
0	0.2412737	0.6337776	0	-3.8555687e-18	-5.7868422e-18	0.3926991	2.06167	0.81	1e-07	1.28e-07	0	4e-09
0	0.19717294	0.61027986	0	-3.8472088e-18	-5.787261e-18	0.3926991	2.1598449	0.81	1e-07	1.28e-07	0	4e-09
0	0.15548445	0.5823881	0	-3.8395664e-18	-5.787698e-18	0.3926991	2.2580197	0.81	1e-07	1.28e-07	0	4e-09
0	0.11671618	0.5503425	0	-3.832798e-18	-5.7881025e-18	0.3926991	2.3561945	0.81	1e-07	1.28e-07	0	4e-09
0	0.08135919	0.51446205	0	-3.8270318e-18	-5.788431e-18	0.3926991	2.4543693	0.81	1e-07	1.28e-07	0	4e-09
0	0.04986874	0.47513804	0	-3.822355e-18	-5.7886517e-18	0.3926991	2.552544	0.81	1e-07	1.28e-07	0	4e-09
0	0.022640822	0.43282315	0	-3.8188137e-18	-5.788748e-18	0.3926991	2.6507187	0.81	1e-07	1.28e-07	0	4e-09
0	6.578879e-10	0.38800746	0	-3.8164116e-18	-5.7887208e-18	0.3926991	2.7488935	0.81	1e-07	1.28e-07	0	4e-09
0	-0.01780738	0.34120804	0	-3.8151216e-18	-5.7885864e-18	0.3926991	2.8470683	0.81	1e-07	1.28e-07	0	4e-09
0	-0.030609647	0.29293352	0	-3.8148945e-18	-5.7883705e-18	0.3926991	2.9452431	0.81	1e-07	1.28e-07	0	4e-09
0	-0.038299832	0.2436937	0	-3.8156663e-18	-5.788103e-18	0.3926991	3.043418	0.81	1e-07	1.28e-07	0	4e-09
0	-0.040830072	0.19398269	0	-3.8173815e-18	-5.7878162e-18	0.3926991	3.1415927	0.81	1e-07	1.28e-07	0	4e-09