# t (s)	mx ()	my ()	mz ()	E_total (J)	E_Zeeman (J)	island1_angle (rad)	island2_angle (rad)	roundness ()	size (m)	islands_distance (m)	islands_angle (rad)	Cell_size (m)
0	0.9992567	-4.350724e-09	0	-5.3559583e-19	-1.090389e-18	0	0	0.49	5e-08	5e-08	0	2e-09
0	0.65062416	0.4764473	0	-4.1352723e-19	-1.0567089e-18	1.5707964	0	0.49	5e-08	5e-08	0	2e-09
0	0.9992949	-6.0891017e-09	0	-5.0839937e-19	-1.0904306e-18	0	0	0.49	5e-08	5.2e-08	0	2e-09
0	0.5754125	0.46663412	0	-4.384654e-19	-1.0824677e-18	1.5707964	0	0.49	5e-08	5.2e-08	0	2e-09
0	0.99931955	-4.858718e-09	0	-4.923859e-19	-1.0904574e-18	0	0	0.49	5e-08	5.4e-08	0	2e-09
0	0.5607779	0.47291136	0	-4.3441773e-19	-1.0853353e-18	1.5707964	0	0.49	5e-08	5.4e-08	0	2e-09
0	0.9993356	-5.739514e-09	0	-4.8146487e-19	-1.090475e-18	0	0	0.49	5e-08	5.6e-08	0	2e-09
0	0.5504903	0.47731158	0	-4.3232256e-19	-1.0869599e-18	1.5707964	0	0.49	5e-08	5.6e-08	0	2e-09
0	0.9993466	-5.7681913e-09	0	-4.7343434e-19	-1.0904871e-18	0	0	0.49	5e-08	5.8e-08	0	2e-09
0	0.54283184	0.48058647	0	-4.3109733e-19	-1.0879647e-18	1.5707964	0	0.49	5e-08	5.8e-08	0	2e-09
0	0.99935436	-5.1666555e-09	0	-4.672403e-19	-1.0904956e-18	0	0	0.49	5e-08	6e-08	0	2e-09
0	0.53689486	0.48312905	0	-4.3032138e-19	-1.0886265e-18	1.5707964	0	0.49	5e-08	6e-08	0	2e-09
0	0.9993602	-3.5184056e-09	0	-4.6230494e-19	-1.0905019e-18	0	0	0.49	5e-08	6.2e-08	0	2e-09
0	0.53215504	0.48516357	0	-4.2980183e-19	-1.0890818e-18	1.5707964	0	0.49	5e-08	6.2e-08	0	2e-09
0	0.9993643	-7.787195e-09	0	-4.582788e-19	-1.0905064e-18	0	0	0.49	5e-08	6.4e-08	0	2e-09
0	0.52828705	0.48682952	0	-4.2943916e-19	-1.0894064e-18	1.5707964	0	0.49	5e-08	6.4e-08	0	2e-09
0	0.9993675	-5.9860006e-09	0	-4.549348e-19	-1.0905098e-18	0	0	0.49	5e-08	6.6e-08	0	2e-09
0	0.5250754	0.48821846	0	-4.2917827e-19	-1.089644e-18	1.5707964	0	0.49	5e-08	6.6e-08	0	2e-09
0	0.99937004	-7.602032e-09	0	-4.521186e-19	-1.0905126e-18	0	0	0.49	5e-08	6.8e-08	0	2e-09
0	0.522373	0.4893922	0	-4.2898592e-19	-1.0898217e-18	1.5707964	0	0.49	5e-08	6.8e-08	0	2e-09
0	0.99937195	-4.287225e-09	0	-4.4971964e-19	-1.0905146e-18	0	0	0.49	5e-08	7e-08	0	2e-09
0	0.5200731	0.4903957	0	-4.2884088e-19	-1.0899571e-18	1.5707964	0	0.49	5e-08	7e-08	0	2e-09
0	0.99937356	-5.085062e-09	0	-4.476566e-19	-1.0905164e-18	0	0	0.49	5e-08	7.2e-08	0	2e-09
0	0.51809704	0.49126196	0	-4.2872986e-19	-1.0900614e-18	1.5707964	0	0.49	5e-08	7.2e-08	0	2e-09
0	0.9993746	-8.375758e-09	0	-4.4586793e-19	-1.0905176e-18	0	0	0.49	5e-08	7.4e-08	0	2e-09
0	0.5163861	0.49201554	0	-4.2864362e-19	-1.0901433e-18	1.5707964	0	0.49	5e-08	7.4e-08	0	2e-09
0	0.9993755	-3.652744e-09	0	-4.443062e-19	-1.0905186e-18	0	0	0.49	5e-08	7.6e-08	0	2e-09
0	0.5148931	0.4926762	0	-4.2857587e-19	-1.0902081e-18	1.5707964	0	0.49	5e-08	7.6e-08	0	2e-09
0	0.9993763	-5.9696137e-09	0	-4.429344e-19	-1.0905195e-18	0	0	0.49	5e-08	7.8e-08	0	2e-09
0	0.513584	0.49325818	0	-4.285218e-19	-1.09026e-18	1.5707964	0	0.49	5e-08	7.8e-08	0	2e-09
0	0.99937695	-4.397495e-09	0	-4.417224e-19	-1.0905202e-18	0	0	0.49	5e-08	8e-08	0	2e-09
0	0.5124293	0.49377355	0	-4.2847858e-19	-1.0903021e-18	1.5707964	0	0.49	5e-08	8e-08	0	2e-09
0	0.99937737	-5.88051e-09	0	-4.406465e-19	-1.0905207e-18	0	0	0.49	5e-08	8.2e-08	0	2e-09
0	0.5113737	0.49424744	0	-4.2844347e-19	-1.0903372e-18	1.5707964	0	0.49	5e-08	8.2e-08	0	2e-09
0	0.9993779	-4.495475e-09	0	-4.396869e-19	-1.0905211e-18	0	0	0.49	5e-08	8.4e-08	0	2e-09
0	0.51049024	0.4946444	0	-4.284146e-19	-1.0903642e-18	1.5707964	0	0.49	5e-08	8.4e-08	0	2e-09
0	0.9993781	-5.1666555e-09	0	-4.3882774e-19	-1.0905214e-18	0	0	0.49	5e-08	8.6e-08	0	2e-09
0	0.5096719	0.49501395	0	-4.2839105e-19	-1.0903873e-18	1.5707964	0	0.49	5e-08	8.6e-08	0	2e-09
0	0.99937844	-6.2715766e-09	0	-4.380556e-19	-1.0905218e-18	0	0	0.49	5e-08	8.8e-08	0	2e-09
0	0.5089383	0.4953467	0	-4.2837138e-19	-1.0904064e-18	1.5707964	0	0.49	5e-08	8.8e-08	0	2e-09
0	0.9993786	-5.9074803e-09	0	-4.373593e-19	-1.090522e-18	0	0	0.49	5e-08	9e-08	0	2e-09
0	0.50827545	0.4956483	0	-4.2835504e-19	-1.0904226e-18	1.5707964	0	0.49	5e-08	9e-08	0	2e-09
0	0.9993789	-7.086655e-09	0	-4.3672955e-19	-1.0905223e-18	0	0	0.49	5e-08	9.2e-08	0	2e-09
0	0.5076649	0.4959272	0	-4.2834147e-19	-1.0904364e-18	1.5707964	0	0.49	5e-08	9.2e-08	0	2e-09
0	0.9993791	-5.6739666e-09	0	-4.36158e-19	-1.0905223e-18	0	0	0.49	5e-08	9.4e-08	0	2e-09
0	0.50713634	0.49616897	0	-4.2833e-19	-1.0904475e-18	1.5707964	0	0.49	5e-08	9.4e-08	0	2e-09
0	0.99937916	-6.2502394e-09	0	-4.3563824e-19	-1.0905225e-18	0	0	0.49	5e-08	9.6e-08	0	2e-09
0	0.5066441	0.49639508	0	-4.2832027e-19	-1.0904572e-18	1.5707964	0	0.49	5e-08	9.6e-08	0	2e-09
0	0.9993793	-5.7811644e-09	0	-4.3516395e-19	-1.0905228e-18	0	0	0.49	5e-08	9.8e-08	0	2e-09
0	0.50619495	0.49660194	0	-4.2831182e-19	-1.0904654e-18	1.5707964	0	0.49	5e-08	9.8e-08	0	2e-09
0	0.99937934	-5.788846e-09	0	-4.347305e-19	-1.0905228e-18	0	0	0.49	5e-08	1e-07	0	2e-09
0	0.5057848	0.4967913	0	-4.2830476e-19	-1.0904723e-18	1.5707964	0	0.49	5e-08	1e-07	0	2e-09
0	0.99937934	-4.7822457e-09	0	-4.343333e-19	-1.090523e-18	0	0	0.49	5e-08	1.02e-07	0	2e-09
0	0.50540495	0.49696726	0	-4.2829884e-19	-1.0904786e-18	1.5707964	0	0.49	5e-08	1.02e-07	0	2e-09
0	0.9993795	-9.844008e-09	0	-4.3396873e-19	-1.090523e-18	0	0	0.49	5e-08	1.04e-07	0	2e-09
0	0.5050645	0.4971253	0	-4.2829342e-19	-1.0904837e-18	1.5707964	0	0.49	5e-08	1.04e-07	0	2e-09
0	0.9993795	-5.3537392e-09	0	-4.3363307e-19	-1.090523e-18	0	0	0.49	5e-08	1.06e-07	0	2e-09
0	0.5047488	0.49727207	0	-4.2828897e-19	-1.0904881e-18	1.5707964	0	0.49	5e-08	1.06e-07	0	2e-09
0	0.99937963	-5.3635545e-09	0	-4.333238e-19	-1.090523e-18	0	0	0.49	5e-08	1.08e-07	0	2e-09
0	0.50445443	0.4974093	0	-4.2828494e-19	-1.090492e-18	1.5707964	0	0.49	5e-08	1.08e-07	0	2e-09
0	0.9993795	-8.0937665e-09	0	-4.3303825e-19	-1.0905231e-18	0	0	0.49	5e-08	1.1e-07	0	2e-09
0	0.5041715	0.49754184	0	-4.2828142e-19	-1.0904955e-18	1.5707964	0	0.49	5e-08	1.1e-07	0	2e-09
0	0.99937963	-6.0846634e-09	0	-4.3277394e-19	-1.0905231e-18	0	0	0.49	5e-08	1.12e-07	0	2e-09
0	0.50393486	0.49765247	0	-4.2827863e-19	-1.0904985e-18	1.5707964	0	0.49	5e-08	1.12e-07	0	2e-09
0	0.99937963	-6.7172663e-09	0	-4.325291e-19	-1.0905231e-18	0	0	0.49	5e-08	1.14e-07	0	2e-09
0	0.50370437	0.4977606	0	-4.282762e-19	-1.090501e-18	1.5707964	0	0.49	5e-08	1.14e-07	0	2e-09
0	0.9993798	-7.120709e-09	0	-4.3230196e-19	-1.0905233e-18	0	0	0.49	5e-08	1.16e-07	0	2e-09
0	0.50348985	0.49786144	0	-4.2827374e-19	-1.0905033e-18	1.5707964	0	0.49	5e-08	1.16e-07	0	2e-09
0	0.9993797	-5.879486e-09	0	-4.3209085e-19	-1.0905233e-18	0	0	0.49	5e-08	1.18e-07	0	2e-09
0	0.50328434	0.49795827	0	-4.2827188e-19	-1.0905054e-18	1.5707964	0	0.49	5e-08	1.18e-07	0	2e-09
0	0.9993797	-5.2853752e-09	0	-4.318942e-19	-1.0905233e-18	0	0	0.49	5e-08	1.2e-07	0	2e-09
0	0.50310457	0.49804303	0	-4.2827015e-19	-1.0905071e-18	1.5707964	0	0.49	5e-08	1.2e-07	0	2e-09
0	0.9993798	-6.5984613e-09	0	-4.317111e-19	-1.0905233e-18	0	0	0.49	5e-08	1.22e-07	0	2e-09
0	0.50293267	0.4981243	0	-4.2826834e-19	-1.0905086e-18	1.5707964	0	0.49	5e-08	1.22e-07	0	2e-09
0	0.9993798	-5.893227e-09	0	-4.315402e-19	-1.0905233e-18	0	0	0.49	5e-08	1.24e-07	0	2e-09
0	0.50277054	0.49820098	0	-4.2826708e-19	-1.09051e-18	1.5707964	0	0.49	5e-08	1.24e-07	0	2e-09
0	0.9993798	-5.9170393e-09	0	-4.313805e-19	-1.0905233e-18	0	0	0.49	5e-08	1.26e-07	0	2e-09
0	0.502621	0.4982719	0	-4.28266e-19	-1.0905114e-18	1.5707964	0	0.49	5e-08	1.26e-07	0	2e-09
0	0.9993798	-4.8550266e-09	0	-4.3123107e-19	-1.0905233e-18	0	0	0.49	5e-08	1.28e-07	0	2e-09
0	0.50247884	0.49833944	0	-4.2826465e-19	-1.0905123e-18	1.5707964	0	0.49	5e-08	1.28e-07	0	2e-09
0	0.9993798	-3.729387e-09	0	-4.3109115e-19	-1.0905233e-18	0	0	0.49	5e-08	1.3e-07	0	2e-09
0	0.5023485	0.4984013	0	-4.2826371e-19	-1.0905134e-18	1.5707964	0	0.49	5e-08	1.3e-07	0	2e-09
0	0.9993798	-7.549329e-09	0	-4.309598e-19	-1.0905233e-18	0	0	0.49	5e-08	1.32e-07	0	2e-09
0	0.5022173	0.49846387	0	-4.282628e-19	-1.0905143e-18	1.5707964	0	0.49	5e-08	1.32e-07	0	2e-09
0	0.9993798	-6.384066e-09	0	-4.3083658e-19	-1.0905233e-18	0	0	0.49	5e-08	1.34e-07	0	2e-09
0	0.50210845	0.49851573	0	-4.282621e-19	-1.090515e-18	1.5707964	0	0.49	5e-08	1.34e-07	0	2e-09
0	0.9993798	-4.726556e-09	0	-4.3072098e-19	-1.0905233e-18	0	0	0.49	5e-08	1.36e-07	0	2e-09
0	0.50200063	0.4985672	0	-4.2826152e-19	-1.0905158e-18	1.5707964	0	0.49	5e-08	1.36e-07	0	2e-09
0	0.9993798	-5.4110934e-09	0	-4.306121e-19	-1.0905233e-18	0	0	0.49	5e-08	1.38e-07	0	2e-09
0	0.5019008	0.49861482	0	-4.2826082e-19	-1.0905164e-18	1.5707964	0	0.49	5e-08	1.38e-07	0	2e-09
0	0.9993798	-6.034735e-09	0	-4.3050956e-19	-1.0905234e-18	0	0	0.49	5e-08	1.4e-07	0	2e-09
0	0.50178844	0.49866873	0	-4.282604e-19	-1.0905171e-18	1.5707964	0	0.49	5e-08	1.4e-07	0	2e-09
0	0.9993798	-5.062189e-09	0	-4.3041314e-19	-1.0905233e-18	0	0	0.49	5e-08	1.42e-07	0	2e-09
0	0.5017114	0.49870548	0	-4.2825984e-19	-1.0905176e-18	1.5707964	0	0.49	5e-08	1.42e-07	0	2e-09
0	0.9993798	-5.288917e-09	0	-4.3032195e-19	-1.0905234e-18	0	0	0.49	5e-08	1.44e-07	0	2e-09
0	0.5016181	0.4987503	0	-4.2825935e-19	-1.090518e-18	1.5707964	0	0.49	5e-08	1.44e-07	0	2e-09
0	0.9993798	-4.5289315e-09	0	-4.3023587e-19	-1.0905233e-18	0	0	0.49	5e-08	1.46e-07	0	2e-09
0	0.50154495	0.49878538	0	-4.2825886e-19	-1.0905184e-18	1.5707964	0	0.49	5e-08	1.46e-07	0	2e-09
0	0.9993798	-4.8375943e-09	0	-4.3015468e-19	-1.0905233e-18	0	0	0.49	5e-08	1.48e-07	0	2e-09
0	0.50146794	0.49882233	0	-4.2825844e-19	-1.0905187e-18	1.5707964	0	0.49	5e-08	1.48e-07	0	2e-09
0	0.9993798	-5.9033836e-09	0	-4.3007785e-19	-1.0905233e-18	0	0	0.49	5e-08	1.5e-07	0	2e-09
0	0.5013955	0.4988572	0	-4.2825829e-19	-1.0905192e-18	1.5707964	0	0.49	5e-08	1.5e-07	0	2e-09
0	0.9993798	-2.910191e-09	0	-4.3000503e-19	-1.0905233e-18	0	0	0.49	5e-08	1.52e-07	0	2e-09
0	0.501327	0.49889022	0	-4.2825795e-19	-1.0905194e-18	1.5707964	0	0.49	5e-08	1.52e-07	0	2e-09
0	0.9993798	-6.4127432e-09	0	-4.29936e-19	-1.0905233e-18	0	0	0.49	5e-08	1.54e-07	0	2e-09
0	0.50126165	0.49892163	0	-4.2825772e-19	-1.0905198e-18	1.5707964	0	0.49	5e-08	1.54e-07	0	2e-09
0	0.9993798	-6.0445924e-09	0	-4.2987075e-19	-1.0905233e-18	0	0	0.49	5e-08	1.56e-07	0	2e-09
0	0.5012001	0.49895135	0	-4.2825733e-19	-1.09052e-18	1.5707964	0	0.49	5e-08	1.56e-07	0	2e-09
0	0.9993798	-4.787708e-09	0	-4.298089e-19	-1.0905233e-18	0	0	0.49	5e-08	1.58e-07	0	2e-09
0	0.5011442	0.49897835	0	-4.282571e-19	-1.0905202e-18	1.5707964	0	0.49	5e-08	1.58e-07	0	2e-09
0	0.9993798	-4.5224877e-09	0	-4.2974995e-19	-1.0905233e-18	0	0	0.49	5e-08	1.6e-07	0	2e-09
0	0.50108564	0.4990066	0	-4.2825692e-19	-1.0905204e-18	1.5707964	0	0.49	5e-08	1.6e-07	0	2e-09
0	0.9993798	-6.7254597e-09	0	-4.2969414e-19	-1.0905233e-18	0	0	0.49	5e-08	1.62e-07	0	2e-09
0	0.50103426	0.4990314	0	-4.2825666e-19	-1.0905207e-18	1.5707964	0	0.49	5e-08	1.62e-07	0	2e-09
0	0.9993798	-7.1780843e-09	0	-4.2964118e-19	-1.0905233e-18	0	0	0.49	5e-08	1.64e-07	0	2e-09
0	0.50098586	0.49905482	0	-4.282565e-19	-1.0905209e-18	1.5707964	0	0.49	5e-08	1.64e-07	0	2e-09
0	0.9993798	-4.721478e-09	0	-4.2959056e-19	-1.0905233e-18	0	0	0.49	5e-08	1.66e-07	0	2e-09
0	0.5009384	0.49907786	0	-4.2825635e-19	-1.090521e-18	1.5707964	0	0.49	5e-08	1.66e-07	0	2e-09
0	0.9993798	-8.064641e-09	0	-4.2954248e-19	-1.0905233e-18	0	0	0.49	5e-08	1.68e-07	0	2e-09
0	0.5008928	0.4990999	0	-4.2825606e-19	-1.090521e-18	1.5707964	0	0.49	5e-08	1.68e-07	0	2e-09
0	0.9993798	-4.0468833e-09	0	-4.2949676e-19	-1.0905233e-18	0	0	0.49	5e-08	1.7e-07	0	2e-09
0	0.50085	0.49912062	0	-4.2825604e-19	-1.0905213e-18	1.5707964	0	0.49	5e-08	1.7e-07	0	2e-09
0	0.9993798	-5.123725e-09	0	-4.2945312e-19	-1.0905233e-18	0	0	0.49	5e-08	1.72e-07	0	2e-09
0	0.5008083	0.49914086	0	-4.2825588e-19	-1.0905213e-18	1.5707964	0	0.49	5e-08	1.72e-07	0	2e-09
0	0.9993798	-5.7238103e-09	0	-4.2941148e-19	-1.0905233e-18	0	0	0.49	5e-08	1.74e-07	0	2e-09
0	0.50077206	0.49915847	0	-4.2825599e-19	-1.0905214e-18	1.5707964	0	0.49	5e-08	1.74e-07	0	2e-09
0	0.9993798	-6.8581234e-09	0	-4.293718e-19	-1.0905233e-18	0	0	0.49	5e-08	1.76e-07	0	2e-09
0	0.5007151	0.4991863	0	-4.2825575e-19	-1.0905217e-18	1.5707964	0	0.49	5e-08	1.76e-07	0	2e-09
0	0.9993798	-3.240511e-09	0	-4.293338e-19	-1.0905231e-18	0	0	0.49	5e-08	1.78e-07	0	2e-09
0	0.5006966	0.4991951	0	-4.282558e-19	-1.0905217e-18	1.5707964	0	0.49	5e-08	1.78e-07	0	2e-09
0	0.9993797	-6.154297e-09	0	-4.2929782e-19	-1.0905233e-18	0	0	0.49	5e-08	1.8e-07	0	2e-09
0	0.50066555	0.49921027	0	-4.2825562e-19	-1.0905218e-18	1.5707964	0	0.49	5e-08	1.8e-07	0	2e-09
0	0.9993798	-3.9854324e-09	0	-4.2926318e-19	-1.0905233e-18	0	0	0.49	5e-08	1.82e-07	0	2e-09
0	0.5006305	0.49922734	0	-4.2825547e-19	-1.0905219e-18	1.5707964	0	0.49	5e-08	1.82e-07	0	2e-09
0	0.9993798	-5.6105742e-09	0	-4.2923012e-19	-1.0905231e-18	0	0	0.49	5e-08	1.84e-07	0	2e-09
0	0.50059986	0.49924216	0	-4.2825534e-19	-1.0905219e-18	1.5707964	0	0.49	5e-08	1.84e-07	0	2e-09
0	0.9993797	-5.1605102e-09	0	-4.2919856e-19	-1.0905233e-18	0	0	0.49	5e-08	1.86e-07	0	2e-09
0	0.50056946	0.49925703	0	-4.2825531e-19	-1.090522e-18	1.5707964	0	0.49	5e-08	1.86e-07	0	2e-09
0	0.9993798	-5.3670215e-09	0	-4.2916834e-19	-1.0905231e-18	0	0	0.49	5e-08	1.88e-07	0	2e-09
0	0.50054204	0.4992704	0	-4.2825524e-19	-1.090522e-18	1.5707964	0	0.49	5e-08	1.88e-07	0	2e-09
0	0.9993798	-5.6842087e-09	0	-4.2913926e-19	-1.0905231e-18	0	0	0.49	5e-08	1.9e-07	0	2e-09
0	0.50051403	0.499284	0	-4.2825537e-19	-1.0905221e-18	1.5707964	0	0.49	5e-08	1.9e-07	0	2e-09
0	0.9993797	-5.565398e-09	0	-4.2911137e-19	-1.0905233e-18	0	0	0.49	5e-08	1.92e-07	0	2e-09
0	0.50048614	0.4992976	0	-4.282553e-19	-1.0905223e-18	1.5707964	0	0.49	5e-08	1.92e-07	0	2e-09
0	0.9993798	-6.3396848e-09	0	-4.2908477e-19	-1.0905233e-18	0	0	0.49	5e-08	1.94e-07	0	2e-09
0	0.5004508	0.49931496	0	-4.2825508e-19	-1.0905223e-18	1.5707964	0	0.49	5e-08	1.94e-07	0	2e-09
0	0.9993798	-4.347502e-09	0	-4.290594e-19	-1.0905232e-18	0	0	0.49	5e-08	1.96e-07	0	2e-09
0	0.50043964	0.49932033	0	-4.2825508e-19	-1.0905222e-18	1.5707964	0	0.49	5e-08	1.96e-07	0	2e-09
0	0.9993797	-4.2653756e-09	0	-4.2903475e-19	-1.0905233e-18	0	0	0.49	5e-08	1.98e-07	0	2e-09
0	0.50041753	0.49933118	0	-4.2825495e-19	-1.0905223e-18	1.5707964	0	0.49	5e-08	1.98e-07	0	2e-09
0	0.9993797	-4.391195e-09	0	-4.2901146e-19	-1.0905233e-18	0	0	0.49	5e-08	2e-07	0	2e-09
0	0.5003941	0.49934256	0	-4.2825493e-19	-1.0905223e-18	1.5707964	0	0.49	5e-08	2e-07	0	2e-09
