# t (s)	mx ()	my ()	mz ()	E_total (J)	E_Zeeman (J)	island1_angle (rad)	island2_angle (rad)	roundness ()	size (m)	islands_distance (m)	islands_angle (rad)	Cell_size (m)
0	0.99732697	-2.3924884e-09	0	-2.961257e-18	-4.3531327e-18	0	0	0.49	1e-07	1e-07	0	4e-09
0	0.57439154	0.4832356	0	-2.708722e-18	-4.299889e-18	1.5707964	0	0.49	1e-07	1e-07	0	4e-09
0	0.99740195	-3.889159e-09	0	-2.8856843e-18	-4.3534607e-18	0	0	0.49	1e-07	1.04e-07	0	4e-09
0	0.5379195	0.48360687	0	-2.7322371e-18	-4.343145e-18	1.5707964	0	0.49	1e-07	1.04e-07	0	4e-09
0	0.99744827	-4.832772e-09	0	-2.849094e-18	-4.3536625e-18	0	0	0.49	1e-07	1.08e-07	0	4e-09
0	0.5293905	0.48660338	0	-2.725309e-18	-4.347797e-18	1.5707964	0	0.49	1e-07	1.08e-07	0	4e-09
0	0.9974776	-1.8257746e-09	0	-2.8256583e-18	-4.35379e-18	0	0	0.49	1e-07	1.12e-07	0	4e-09
0	0.5238802	0.48859876	0	-2.7222863e-18	-4.350026e-18	1.5707964	0	0.49	1e-07	1.12e-07	0	4e-09
0	0.99749726	-3.169501e-09	0	-2.808867e-18	-4.353876e-18	0	0	0.49	1e-07	1.16e-07	0	4e-09
0	0.51993304	0.4900591	0	-2.7206709e-18	-4.351285e-18	1.5707964	0	0.49	1e-07	1.16e-07	0	4e-09
0	0.9975111	-3.726656e-09	0	-2.796085e-18	-4.353936e-18	0	0	0.49	1e-07	1.2e-07	0	4e-09
0	0.5169351	0.49118853	0	-2.7197039e-18	-4.352067e-18	1.5707964	0	0.49	1e-07	1.2e-07	0	4e-09
0	0.997521	-2.8021612e-09	0	-2.7859821e-18	-4.3539797e-18	0	0	0.49	1e-07	1.24e-07	0	4e-09
0	0.51457167	0.4920939	0	-2.7190808e-18	-4.352585e-18	1.5707964	0	0.49	1e-07	1.24e-07	0	4e-09
0	0.9975282	-3.2947927e-09	0	-2.777783e-18	-4.3540116e-18	0	0	0.49	1e-07	1.28e-07	0	4e-09
0	0.5126586	0.49283803	0	-2.7186594e-18	-4.3529437e-18	1.5707964	0	0.49	1e-07	1.28e-07	0	4e-09
0	0.9975336	-2.2791458e-09	0	-2.7709992e-18	-4.3540347e-18	0	0	0.49	1e-07	1.32e-07	0	4e-09
0	0.51107997	0.49346092	0	-2.7183624e-18	-4.3531997e-18	1.5707964	0	0.49	1e-07	1.32e-07	0	4e-09
0	0.9975377	-4.1622745e-09	0	-2.7653006e-18	-4.354052e-18	0	0	0.49	1e-07	1.36e-07	0	4e-09
0	0.5097569	0.4939899	0	-2.7181486e-18	-4.3533883e-18	1.5707964	0	0.49	1e-07	1.36e-07	0	4e-09
0	0.9975407	-3.195447e-09	0	-2.7604564e-18	-4.354066e-18	0	0	0.49	1e-07	1.4e-07	0	4e-09
0	0.5086342	0.49444437	0	-2.7179885e-18	-4.353529e-18	1.5707964	0	0.49	1e-07	1.4e-07	0	4e-09
0	0.9975431	-4.0564423e-09	0	-2.7562955e-18	-4.354076e-18	0	0	0.49	1e-07	1.44e-07	0	4e-09
0	0.50767195	0.49483824	0	-2.7178678e-18	-4.3536364e-18	1.5707964	0	0.49	1e-07	1.44e-07	0	4e-09
0	0.997545	-3.4508096e-09	0	-2.752692e-18	-4.3540844e-18	0	0	0.49	1e-07	1.48e-07	0	4e-09
0	0.50683874	0.49518284	0	-2.7177755e-18	-4.353721e-18	1.5707964	0	0.49	1e-07	1.48e-07	0	4e-09
0	0.9975463	-4.3961292e-09	0	-2.7495477e-18	-4.3540897e-18	0	0	0.49	1e-07	1.52e-07	0	4e-09
0	0.50611496	0.49548507	0	-2.7177031e-18	-4.3537857e-18	1.5707964	0	0.49	1e-07	1.52e-07	0	4e-09
0	0.9975473	-1.7001417e-09	0	-2.7467874e-18	-4.3540947e-18	0	0	0.49	1e-07	1.56e-07	0	4e-09
0	0.50547945	0.49575287	0	-2.7176459e-18	-4.353838e-18	1.5707964	0	0.49	1e-07	1.56e-07	0	4e-09
0	0.9975482	-3.60273e-09	0	-2.7443504e-18	-4.3540984e-18	0	0	0.49	1e-07	1.6e-07	0	4e-09
0	0.50491923	0.49599087	0	-2.7176006e-18	-4.35388e-18	1.5707964	0	0.49	1e-07	1.6e-07	0	4e-09
0	0.9975488	-3.7280214e-09	0	-2.7421879e-18	-4.3541013e-18	0	0	0.49	1e-07	1.64e-07	0	4e-09
0	0.5044226	0.49620342	0	-2.7175633e-18	-4.353913e-18	1.5707964	0	0.49	1e-07	1.64e-07	0	4e-09
0	0.9975493	-2.3619338e-09	0	-2.7402595e-18	-4.3541034e-18	0	0	0.49	1e-07	1.68e-07	0	4e-09
0	0.5039804	0.49639413	0	-2.7175336e-18	-4.3539404e-18	1.5707964	0	0.49	1e-07	1.68e-07	0	4e-09
0	0.99754965	-3.02475e-09	0	-2.738535e-18	-4.3541046e-18	0	0	0.49	1e-07	1.72e-07	0	4e-09
0	0.50358516	0.4965656	0	-2.7175092e-18	-4.353964e-18	1.5707964	0	0.49	1e-07	1.72e-07	0	4e-09
0	0.9975499	-4.4246358e-09	0	-2.7369845e-18	-4.354106e-18	0	0	0.49	1e-07	1.76e-07	0	4e-09
0	0.50323045	0.49672052	0	-2.7174893e-18	-4.353982e-18	1.5707964	0	0.49	1e-07	1.76e-07	0	4e-09
0	0.9975501	-3.9984056e-09	0	-2.7355876e-18	-4.3541067e-18	0	0	0.49	1e-07	1.8e-07	0	4e-09
0	0.50291073	0.49686098	0	-2.717473e-18	-4.3539987e-18	1.5707964	0	0.49	1e-07	1.8e-07	0	4e-09
0	0.99755025	-4.251549e-09	0	-2.734324e-18	-4.354107e-18	0	0	0.49	1e-07	1.84e-07	0	4e-09
0	0.50261885	0.49698994	0	-2.7174593e-18	-4.354012e-18	1.5707964	0	0.49	1e-07	1.84e-07	0	4e-09
0	0.99755037	-3.860482e-09	0	-2.7331785e-18	-4.3541075e-18	0	0	0.49	1e-07	1.88e-07	0	4e-09
0	0.50236017	0.49710476	0	-2.717447e-18	-4.3540223e-18	1.5707964	0	0.49	1e-07	1.88e-07	0	4e-09
0	0.99755037	-4.5544506e-09	0	-2.7321362e-18	-4.354108e-18	0	0	0.49	1e-07	1.92e-07	0	4e-09
0	0.50212216	0.49721092	0	-2.7174374e-18	-4.354032e-18	1.5707964	0	0.49	1e-07	1.92e-07	0	4e-09
0	0.9975504	-5.023953e-09	0	-2.731186e-18	-4.3541083e-18	0	0	0.49	1e-07	1.96e-07	0	4e-09
0	0.5019056	0.49730802	0	-2.717429e-18	-4.35404e-18	1.5707964	0	0.49	1e-07	1.96e-07	0	4e-09
0	0.9975504	-4.268192e-09	0	-2.7303168e-18	-4.354108e-18	0	0	0.49	1e-07	2e-07	0	4e-09
0	0.50170743	0.4973971	0	-2.7174215e-18	-4.3540467e-18	1.5707964	0	0.49	1e-07	2e-07	0	4e-09
0	0.99755037	-4.1404253e-09	0	-2.7295217e-18	-4.354108e-18	0	0	0.49	1e-07	2.04e-07	0	4e-09
0	0.5015262	0.497479	0	-2.7174157e-18	-4.354052e-18	1.5707964	0	0.49	1e-07	2.04e-07	0	4e-09
0	0.99755037	-2.9302691e-09	0	-2.7287913e-18	-4.354108e-18	0	0	0.49	1e-07	2.08e-07	0	4e-09
0	0.5013588	0.49755493	0	-2.7174101e-18	-4.3540575e-18	1.5707964	0	0.49	1e-07	2.08e-07	0	4e-09
0	0.99755025	-4.8969544e-09	0	-2.7281194e-18	-4.354108e-18	0	0	0.49	1e-07	2.12e-07	0	4e-09
0	0.5012072	0.49762398	0	-2.7174058e-18	-4.3540616e-18	1.5707964	0	0.49	1e-07	2.12e-07	0	4e-09
0	0.99755025	-3.5144796e-09	0	-2.7274994e-18	-4.354107e-18	0	0	0.49	1e-07	2.16e-07	0	4e-09
0	0.5010663	0.49768823	0	-2.717402e-18	-4.3540657e-18	1.5707964	0	0.49	1e-07	2.16e-07	0	4e-09
0	0.99755025	-4.9283626e-09	0	-2.7269283e-18	-4.354107e-18	0	0	0.49	1e-07	2.2e-07	0	4e-09
0	0.50093555	0.4977482	0	-2.7173981e-18	-4.3540682e-18	1.5707964	0	0.49	1e-07	2.2e-07	0	4e-09
0	0.9975502	-4.4537396e-09	0	-2.726399e-18	-4.3541067e-18	0	0	0.49	1e-07	2.24e-07	0	4e-09
0	0.5008158	0.49780318	0	-2.7173954e-18	-4.3540715e-18	1.5707964	0	0.49	1e-07	2.24e-07	0	4e-09
0	0.99755	-4.2100696e-09	0	-2.7259094e-18	-4.3541067e-18	0	0	0.49	1e-07	2.28e-07	0	4e-09
0	0.50070333	0.497855	0	-2.717393e-18	-4.354074e-18	1.5707964	0	0.49	1e-07	2.28e-07	0	4e-09
0	0.99755	-3.5313785e-09	0	-2.7254547e-18	-4.3541063e-18	0	0	0.49	1e-07	2.32e-07	0	4e-09
0	0.5006015	0.49790213	0	-2.7173907e-18	-4.354076e-18	1.5707964	0	0.49	1e-07	2.32e-07	0	4e-09
0	0.99755	-4.06805e-09	0	-2.7250324e-18	-4.354106e-18	0	0	0.49	1e-07	2.36e-07	0	4e-09
0	0.50050557	0.4979465	0	-2.7173888e-18	-4.3540777e-18	1.5707964	0	0.49	1e-07	2.36e-07	0	4e-09
0	0.9975499	-2.8015636e-09	0	-2.7246395e-18	-4.354106e-18	0	0	0.49	1e-07	2.4e-07	0	4e-09
0	0.50041634	0.49798796	0	-2.717387e-18	-4.35408e-18	1.5707964	0	0.49	1e-07	2.4e-07	0	4e-09
0	0.9975497	-2.7857743e-09	0	-2.724273e-18	-4.3541055e-18	0	0	0.49	1e-07	2.44e-07	0	4e-09
0	0.5003332	0.49802664	0	-2.7173857e-18	-4.3540815e-18	1.5707964	0	0.49	1e-07	2.44e-07	0	4e-09
0	0.9975497	-4.048505e-09	0	-2.723931e-18	-4.3541055e-18	0	0	0.49	1e-07	2.48e-07	0	4e-09
0	0.5002556	0.49806285	0	-2.7173843e-18	-4.3540827e-18	1.5707964	0	0.49	1e-07	2.48e-07	0	4e-09
0	0.9975497	-2.5631854e-09	0	-2.723612e-18	-4.354105e-18	0	0	0.49	1e-07	2.52e-07	0	4e-09
0	0.50018334	0.49809664	0	-2.7173822e-18	-4.354083e-18	1.5707964	0	0.49	1e-07	2.52e-07	0	4e-09
0	0.99754965	-3.8889034e-09	0	-2.723313e-18	-4.3541046e-18	0	0	0.49	1e-07	2.56e-07	0	4e-09
0	0.50011533	0.4981285	0	-2.7173816e-18	-4.3540844e-18	1.5707964	0	0.49	1e-07	2.56e-07	0	4e-09
0	0.99754953	-5.6043223e-09	0	-2.7230329e-18	-4.354104e-18	0	0	0.49	1e-07	2.6e-07	0	4e-09
0	0.50005215	0.49815816	0	-2.7173805e-18	-4.3540856e-18	1.5707964	0	0.49	1e-07	2.6e-07	0	4e-09
0	0.9975495	-3.231208e-09	0	-2.7227709e-18	-4.354104e-18	0	0	0.49	1e-07	2.64e-07	0	4e-09
0	0.4999927	0.49818608	0	-2.7173803e-18	-4.354087e-18	1.5707964	0	0.49	1e-07	2.64e-07	0	4e-09
0	0.99754936	-4.816385e-09	0	-2.722525e-18	-4.3541034e-18	0	0	0.49	1e-07	2.68e-07	0	4e-09
0	0.4999369	0.49821234	0	-2.7173795e-18	-4.354087e-18	1.5707964	0	0.49	1e-07	2.68e-07	0	4e-09
0	0.99754936	-5.8108656e-09	0	-2.7222934e-18	-4.3541034e-18	0	0	0.49	1e-07	2.72e-07	0	4e-09
0	0.49988455	0.49823704	0	-2.717378e-18	-4.3540877e-18	1.5707964	0	0.49	1e-07	2.72e-07	0	4e-09
0	0.9975493	-2.9455467e-09	0	-2.7220758e-18	-4.3541034e-18	0	0	0.49	1e-07	2.76e-07	0	4e-09
0	0.49983528	0.4982604	0	-2.7173776e-18	-4.3540885e-18	1.5707964	0	0.49	1e-07	2.76e-07	0	4e-09
0	0.9975492	-3.5401269e-09	0	-2.721871e-18	-4.3541026e-18	0	0	0.49	1e-07	2.8e-07	0	4e-09
0	0.49978906	0.4982822	0	-2.717377e-18	-4.3540885e-18	1.5707964	0	0.49	1e-07	2.8e-07	0	4e-09
0	0.9975492	-2.976955e-09	0	-2.721678e-18	-4.3541026e-18	0	0	0.49	1e-07	2.84e-07	0	4e-09
0	0.49974522	0.49830306	0	-2.7173766e-18	-4.3540893e-18	1.5707964	0	0.49	1e-07	2.84e-07	0	4e-09
0	0.9975492	-4.9064917e-09	0	-2.7214958e-18	-4.3541026e-18	0	0	0.49	1e-07	2.88e-07	0	4e-09
0	0.4997039	0.49832267	0	-2.7173766e-18	-4.3540897e-18	1.5707964	0	0.49	1e-07	2.88e-07	0	4e-09
0	0.9975491	-4.2100696e-09	0	-2.7213235e-18	-4.354102e-18	0	0	0.49	1e-07	2.92e-07	0	4e-09
0	0.49966526	0.49834105	0	-2.7173758e-18	-4.35409e-18	1.5707964	0	0.49	1e-07	2.92e-07	0	4e-09
0	0.9975491	-5.5961715e-09	0	-2.7211616e-18	-4.354102e-18	0	0	0.49	1e-07	2.96e-07	0	4e-09
0	0.499629	0.49835828	0	-2.7173758e-18	-4.3540906e-18	1.5707964	0	0.49	1e-07	2.96e-07	0	4e-09
0	0.997549	-4.6962145e-09	0	-2.721008e-18	-4.354102e-18	0	0	0.49	1e-07	3e-07	0	4e-09
0	0.4995916	0.49837613	0	-2.717375e-18	-4.3540906e-18	1.5707964	0	0.49	1e-07	3e-07	0	4e-09
0	0.99754894	-2.4369977e-09	0	-2.7208628e-18	-4.3541013e-18	0	0	0.49	1e-07	3.04e-07	0	4e-09
0	0.49956104	0.4983907	0	-2.7173748e-18	-4.354091e-18	1.5707964	0	0.49	1e-07	3.04e-07	0	4e-09
0	0.99754894	-2.4020474e-09	0	-2.7207255e-18	-4.3541013e-18	0	0	0.49	1e-07	3.08e-07	0	4e-09
0	0.49953	0.49840558	0	-2.7173748e-18	-4.3540914e-18	1.5707964	0	0.49	1e-07	3.08e-07	0	4e-09
0	0.9975488	-5.633554e-09	0	-2.7205952e-18	-4.3541013e-18	0	0	0.49	1e-07	3.12e-07	0	4e-09
0	0.49950045	0.4984197	0	-2.7173745e-18	-4.3540914e-18	1.5707964	0	0.49	1e-07	3.12e-07	0	4e-09
0	0.9975488	-2.773484e-09	0	-2.7204709e-18	-4.354101e-18	0	0	0.49	1e-07	3.16e-07	0	4e-09
0	0.4994719	0.49843332	0	-2.7173743e-18	-4.354092e-18	1.5707964	0	0.49	1e-07	3.16e-07	0	4e-09
0	0.9975488	-2.9105218e-09	0	-2.7203536e-18	-4.354101e-18	0	0	0.49	1e-07	3.2e-07	0	4e-09
0	0.49944562	0.498446	0	-2.7173737e-18	-4.3540922e-18	1.5707964	0	0.49	1e-07	3.2e-07	0	4e-09
0	0.99754876	-3.3975522e-09	0	-2.720242e-18	-4.3541005e-18	0	0	0.49	1e-07	3.24e-07	0	4e-09
0	0.4994207	0.4984579	0	-2.7173737e-18	-4.3540922e-18	1.5707964	0	0.49	1e-07	3.24e-07	0	4e-09
0	0.99754876	-2.849615e-09	0	-2.7201367e-18	-4.3541005e-18	0	0	0.49	1e-07	3.28e-07	0	4e-09
0	0.49939677	0.49846932	0	-2.717374e-18	-4.3540926e-18	1.5707964	0	0.49	1e-07	3.28e-07	0	4e-09
0	0.99754864	-4.607452e-09	0	-2.7200354e-18	-4.3541005e-18	0	0	0.49	1e-07	3.32e-07	0	4e-09
0	0.49937358	0.49848056	0	-2.7173735e-18	-4.3540926e-18	1.5707964	0	0.49	1e-07	3.32e-07	0	4e-09
0	0.99754864	-4.723622e-09	0	-2.7199392e-18	-4.3541e-18	0	0	0.49	1e-07	3.36e-07	0	4e-09
0	0.4993521	0.4984909	0	-2.717373e-18	-4.3540926e-18	1.5707964	0	0.49	1e-07	3.36e-07	0	4e-09
0	0.9975486	-4.431293e-09	0	-2.7198478e-18	-4.3541e-18	0	0	0.49	1e-07	3.4e-07	0	4e-09
0	0.4993312	0.49850097	0	-2.7173733e-18	-4.3540926e-18	1.5707964	0	0.49	1e-07	3.4e-07	0	4e-09
0	0.9975486	-4.2434087e-09	0	-2.7197612e-18	-4.3541e-18	0	0	0.49	1e-07	3.44e-07	0	4e-09
0	0.49931186	0.49851027	0	-2.7173737e-18	-4.3540935e-18	1.5707964	0	0.49	1e-07	3.44e-07	0	4e-09
0	0.9975486	-3.2009093e-09	0	-2.719678e-18	-4.3540997e-18	0	0	0.49	1e-07	3.48e-07	0	4e-09
0	0.4992933	0.4985192	0	-2.7173727e-18	-4.3540926e-18	1.5707964	0	0.49	1e-07	3.48e-07	0	4e-09
0	0.99754846	-4.71609e-09	0	-2.7195986e-18	-4.3540997e-18	0	0	0.49	1e-07	3.52e-07	0	4e-09
0	0.49927518	0.498528	0	-2.7173727e-18	-4.354093e-18	1.5707964	0	0.49	1e-07	3.52e-07	0	4e-09
0	0.99754846	-1.971891e-09	0	-2.7195231e-18	-4.3540997e-18	0	0	0.49	1e-07	3.56e-07	0	4e-09
0	0.49925828	0.49853614	0	-2.7173727e-18	-4.354093e-18	1.5707964	0	0.49	1e-07	3.56e-07	0	4e-09
0	0.99754846	-3.8792054e-09	0	-2.719451e-18	-4.3540997e-18	0	0	0.49	1e-07	3.6e-07	0	4e-09
0	0.49924132	0.49854445	0	-2.7173723e-18	-4.354094e-18	1.5707964	0	0.49	1e-07	3.6e-07	0	4e-09
0	0.99754846	-4.41354e-09	0	-2.719382e-18	-4.3540997e-18	0	0	0.49	1e-07	3.64e-07	0	4e-09
0	0.49922633	0.49855164	0	-2.7173725e-18	-4.3540935e-18	1.5707964	0	0.49	1e-07	3.64e-07	0	4e-09
0	0.99754846	-3.16805e-09	0	-2.7193157e-18	-4.3540997e-18	0	0	0.49	1e-07	3.68e-07	0	4e-09
0	0.49921146	0.49855882	0	-2.7173729e-18	-4.354094e-18	1.5707964	0	0.49	1e-07	3.68e-07	0	4e-09
0	0.99754846	-1.3341673e-09	0	-2.7192529e-18	-4.354099e-18	0	0	0.49	1e-07	3.72e-07	0	4e-09
0	0.4991967	0.49856594	0	-2.7173723e-18	-4.3540935e-18	1.5707964	0	0.49	1e-07	3.72e-07	0	4e-09
0	0.9975484	-3.954931e-09	0	-2.7191923e-18	-4.354099e-18	0	0	0.49	1e-07	3.76e-07	0	4e-09
0	0.49918362	0.4985723	0	-2.7173719e-18	-4.354093e-18	1.5707964	0	0.49	1e-07	3.76e-07	0	4e-09
0	0.9975483	-4.4067123e-09	0	-2.7191342e-18	-4.354099e-18	0	0	0.49	1e-07	3.8e-07	0	4e-09
0	0.49917057	0.4985786	0	-2.717372e-18	-4.354094e-18	1.5707964	0	0.49	1e-07	3.8e-07	0	4e-09
0	0.9975482	-4.4169117e-09	0	-2.7190787e-18	-4.354099e-18	0	0	0.49	1e-07	3.84e-07	0	4e-09
0	0.499158	0.49858478	0	-2.7173719e-18	-4.3540935e-18	1.5707964	0	0.49	1e-07	3.84e-07	0	4e-09
0	0.9975482	-4.115845e-09	0	-2.7190258e-18	-4.354099e-18	0	0	0.49	1e-07	3.88e-07	0	4e-09
0	0.49914622	0.4985905	0	-2.7173723e-18	-4.3540935e-18	1.5707964	0	0.49	1e-07	3.88e-07	0	4e-09
0	0.9975482	-4.640802e-09	0	-2.7189745e-18	-4.3540984e-18	0	0	0.49	1e-07	3.92e-07	0	4e-09
0	0.49913487	0.498596	0	-2.7173723e-18	-4.354094e-18	1.5707964	0	0.49	1e-07	3.92e-07	0	4e-09
0	0.9975483	-3.2910372e-09	0	-2.7189261e-18	-4.3540984e-18	0	0	0.49	1e-07	3.96e-07	0	4e-09
0	0.49912363	0.49860147	0	-2.7173717e-18	-4.3540943e-18	1.5707964	0	0.49	1e-07	3.96e-07	0	4e-09
0	0.9975482	-3.0761778e-09	0	-2.7188792e-18	-4.3540984e-18	0	0	0.49	1e-07	4e-07	0	4e-09
0	0.49911302	0.49860656	0	-2.717372e-18	-4.3540943e-18	1.5707964	0	0.49	1e-07	4e-07	0	4e-09
