# t (s)	mx ()	my ()	mz ()	E_total (J)	E_Zeeman (J)	island1_angle (rad)	island2_angle (rad)	roundness ()	size (m)	islands_distance (m)	islands_angle (rad)	Cell_size (m)
0	0.99732697	-3.3156176e-09	0	-2.961257e-18	-4.3531327e-18	0	0	0.49	1e-07	1e-07	0	4e-09
0	0.5743904	0.48323584	0	-2.7087216e-18	-4.299889e-18	1.5707964	0	0.49	1e-07	1e-07	0	4e-09
0	0.99740195	-3.5860015e-09	0	-2.8856843e-18	-4.3534607e-18	0	0	0.49	1e-07	1.04e-07	0	4e-09
0	0.53791946	0.48360687	0	-2.7322373e-18	-4.343145e-18	1.5707964	0	0.49	1e-07	1.04e-07	0	4e-09
0	0.99744827	-3.4125736e-09	0	-2.849094e-18	-4.353663e-18	0	0	0.49	1e-07	1.08e-07	0	4e-09
0	0.5293905	0.4866034	0	-2.7253089e-18	-4.347797e-18	1.5707964	0	0.49	1e-07	1.08e-07	0	4e-09
0	0.9974776	-2.8048923e-09	0	-2.8256583e-18	-4.35379e-18	0	0	0.49	1e-07	1.12e-07	0	4e-09
0	0.5238801	0.48859885	0	-2.7222861e-18	-4.350026e-18	1.5707964	0	0.49	1e-07	1.12e-07	0	4e-09
0	0.99749726	-3.0520615e-09	0	-2.8088665e-18	-4.3538763e-18	0	0	0.49	1e-07	1.16e-07	0	4e-09
0	0.5199331	0.49005905	0	-2.7206709e-18	-4.3512848e-18	1.5707964	0	0.49	1e-07	1.16e-07	0	4e-09
0	0.9975111	-2.4218483e-09	0	-2.796085e-18	-4.353936e-18	0	0	0.49	1e-07	1.2e-07	0	4e-09
0	0.5169325	0.49118942	0	-2.7197037e-18	-4.3520677e-18	1.5707964	0	0.49	1e-07	1.2e-07	0	4e-09
0	0.997521	-4.5364423e-09	0	-2.785982e-18	-4.3539793e-18	0	0	0.49	1e-07	1.24e-07	0	4e-09
0	0.5145717	0.49209383	0	-2.7190808e-18	-4.352585e-18	1.5707964	0	0.49	1e-07	1.24e-07	0	4e-09
0	0.9975282	-3.9308095e-09	0	-2.7777827e-18	-4.3540116e-18	0	0	0.49	1e-07	1.28e-07	0	4e-09
0	0.51265806	0.49283826	0	-2.7186596e-18	-4.3529437e-18	1.5707964	0	0.49	1e-07	1.28e-07	0	4e-09
0	0.99753374	-2.8608809e-09	0	-2.7709988e-18	-4.3540347e-18	0	0	0.49	1e-07	1.32e-07	0	4e-09
0	0.51108	0.49346092	0	-2.7183626e-18	-4.3531993e-18	1.5707964	0	0.49	1e-07	1.32e-07	0	4e-09
0	0.9975377	-3.9280783e-09	0	-2.7653008e-18	-4.354052e-18	0	0	0.49	1e-07	1.36e-07	0	4e-09
0	0.5097568	0.49399006	0	-2.7181488e-18	-4.353388e-18	1.5707964	0	0.49	1e-07	1.36e-07	0	4e-09
0	0.9975408	-3.504067e-09	0	-2.7604566e-18	-4.354066e-18	0	0	0.49	1e-07	1.4e-07	0	4e-09
0	0.50863415	0.49444437	0	-2.7179885e-18	-4.353529e-18	1.5707964	0	0.49	1e-07	1.4e-07	0	4e-09
0	0.99754304	-2.6263434e-09	0	-2.7562955e-18	-4.354076e-18	0	0	0.49	1e-07	1.44e-07	0	4e-09
0	0.50766987	0.49483907	0	-2.7178673e-18	-4.3536364e-18	1.5707964	0	0.49	1e-07	1.44e-07	0	4e-09
0	0.997545	-2.934622e-09	0	-2.752692e-18	-4.3540844e-18	0	0	0.49	1e-07	1.48e-07	0	4e-09
0	0.50684035	0.49518225	0	-2.7177753e-18	-4.3537204e-18	1.5707964	0	0.49	1e-07	1.48e-07	0	4e-09
0	0.9975463	-1.5451488e-09	0	-2.749548e-18	-4.3540897e-18	0	0	0.49	1e-07	1.52e-07	0	4e-09
0	0.5061151	0.495485	0	-2.7177031e-18	-4.3537857e-18	1.5707964	0	0.49	1e-07	1.52e-07	0	4e-09
0	0.9975473	-1.5553906e-09	0	-2.7467874e-18	-4.3540947e-18	0	0	0.49	1e-07	1.56e-07	0	4e-09
0	0.5054794	0.4957529	0	-2.7176459e-18	-4.3538383e-18	1.5707964	0	0.49	1e-07	1.56e-07	0	4e-09
0	0.9975483	-2.3685909e-09	0	-2.7443501e-18	-4.3540984e-18	0	0	0.49	1e-07	1.6e-07	0	4e-09
0	0.5049192	0.49599087	0	-2.7176006e-18	-4.35388e-18	1.5707964	0	0.49	1e-07	1.6e-07	0	4e-09
0	0.9975488	-4.2073385e-09	0	-2.7421875e-18	-4.3541013e-18	0	0	0.49	1e-07	1.64e-07	0	4e-09
0	0.5044226	0.49620348	0	-2.7175636e-18	-4.353913e-18	1.5707964	0	0.49	1e-07	1.64e-07	0	4e-09
0	0.9975493	-4.996812e-09	0	-2.7402597e-18	-4.354103e-18	0	0	0.49	1e-07	1.68e-07	0	4e-09
0	0.5039803	0.49639413	0	-2.7175338e-18	-4.3539413e-18	1.5707964	0	0.49	1e-07	1.68e-07	0	4e-09
0	0.99754965	-3.4863146e-09	0	-2.7385347e-18	-4.3541046e-18	0	0	0.49	1e-07	1.72e-07	0	4e-09
0	0.503585	0.49656564	0	-2.7175092e-18	-4.3539636e-18	1.5707964	0	0.49	1e-07	1.72e-07	0	4e-09
0	0.9975499	-1.966941e-09	0	-2.736985e-18	-4.3541055e-18	0	0	0.49	1e-07	1.76e-07	0	4e-09
0	0.5032302	0.4967207	0	-2.7174895e-18	-4.353983e-18	1.5707964	0	0.49	1e-07	1.76e-07	0	4e-09
0	0.9975501	-1.5608529e-09	0	-2.7355876e-18	-4.3541067e-18	0	0	0.49	1e-07	1.8e-07	0	4e-09
0	0.50291073	0.49686095	0	-2.7174728e-18	-4.3539987e-18	1.5707964	0	0.49	1e-07	1.8e-07	0	4e-09
0	0.99755025	-3.6250911e-09	0	-2.734324e-18	-4.354107e-18	0	0	0.49	1e-07	1.84e-07	0	4e-09
0	0.50262177	0.49698865	0	-2.7174587e-18	-4.3540116e-18	1.5707964	0	0.49	1e-07	1.84e-07	0	4e-09
0	0.99755037	-2.9783205e-09	0	-2.7331782e-18	-4.3541075e-18	0	0	0.49	1e-07	1.88e-07	0	4e-09
0	0.5023604	0.49710467	0	-2.717447e-18	-4.3540223e-18	1.5707964	0	0.49	1e-07	1.88e-07	0	4e-09
0	0.9975504	-3.7432133e-09	0	-2.7321364e-18	-4.3541083e-18	0	0	0.49	1e-07	1.92e-07	0	4e-09
0	0.50212216	0.49721086	0	-2.7174376e-18	-4.354032e-18	1.5707964	0	0.49	1e-07	1.92e-07	0	4e-09
0	0.99755037	-3.8591166e-09	0	-2.7311858e-18	-4.354108e-18	0	0	0.49	1e-07	1.96e-07	0	4e-09
0	0.50190526	0.49730814	0	-2.717429e-18	-4.35404e-18	1.5707964	0	0.49	1e-07	1.96e-07	0	4e-09
0	0.99755037	-3.015959e-09	0	-2.7303168e-18	-4.354108e-18	0	0	0.49	1e-07	2e-07	0	4e-09
0	0.5017077	0.497397	0	-2.7174217e-18	-4.3540463e-18	1.5707964	0	0.49	1e-07	2e-07	0	4e-09
0	0.99755037	-3.6310657e-09	0	-2.7295215e-18	-4.354108e-18	0	0	0.49	1e-07	2.04e-07	0	4e-09
0	0.50152636	0.497479	0	-2.7174153e-18	-4.354052e-18	1.5707964	0	0.49	1e-07	2.04e-07	0	4e-09
0	0.99755025	-3.0517202e-09	0	-2.7287913e-18	-4.354108e-18	0	0	0.49	1e-07	2.08e-07	0	4e-09
0	0.50136006	0.4975544	0	-2.7174101e-18	-4.3540575e-18	1.5707964	0	0.49	1e-07	2.08e-07	0	4e-09
0	0.99755025	-7.2416477e-09	0	-2.7281192e-18	-4.354108e-18	0	0	0.49	1e-07	2.12e-07	0	4e-09
0	0.501207	0.497624	0	-2.7174052e-18	-4.3540616e-18	1.5707964	0	0.49	1e-07	2.12e-07	0	4e-09
0	0.99755025	-4.936385e-09	0	-2.7274997e-18	-4.354107e-18	0	0	0.49	1e-07	2.16e-07	0	4e-09
0	0.50106627	0.49768826	0	-2.717402e-18	-4.3540657e-18	1.5707964	0	0.49	1e-07	2.16e-07	0	4e-09
0	0.9975501	-3.2172962e-09	0	-2.7269285e-18	-4.354107e-18	0	0	0.49	1e-07	2.2e-07	0	4e-09
0	0.50093627	0.49774784	0	-2.7173985e-18	-4.3540686e-18	1.5707964	0	0.49	1e-07	2.2e-07	0	4e-09
0	0.9975502	-4.31061e-09	0	-2.726399e-18	-4.3541067e-18	0	0	0.49	1e-07	2.24e-07	0	4e-09
0	0.5008159	0.49780318	0	-2.717396e-18	-4.3540715e-18	1.5707964	0	0.49	1e-07	2.24e-07	0	4e-09
0	0.99755	-4.6962145e-09	0	-2.7259094e-18	-4.3541067e-18	0	0	0.49	1e-07	2.28e-07	0	4e-09
0	0.5007046	0.4978544	0	-2.717393e-18	-4.354074e-18	1.5707964	0	0.49	1e-07	2.28e-07	0	4e-09
0	0.99755	-4.29832e-09	0	-2.7254544e-18	-4.3541063e-18	0	0	0.49	1e-07	2.32e-07	0	4e-09
0	0.5006001	0.49790278	0	-2.7173909e-18	-4.354076e-18	1.5707964	0	0.49	1e-07	2.32e-07	0	4e-09
0	0.99755	-3.636528e-09	0	-2.7250326e-18	-4.354106e-18	0	0	0.49	1e-07	2.36e-07	0	4e-09
0	0.50050455	0.49794704	0	-2.7173884e-18	-4.3540777e-18	1.5707964	0	0.49	1e-07	2.36e-07	0	4e-09
0	0.9975499	-4.1078647e-09	0	-2.724639e-18	-4.3541055e-18	0	0	0.49	1e-07	2.4e-07	0	4e-09
0	0.50041634	0.49798796	0	-2.717387e-18	-4.35408e-18	1.5707964	0	0.49	1e-07	2.4e-07	0	4e-09
0	0.9975497	-2.8677087e-09	0	-2.724273e-18	-4.3541055e-18	0	0	0.49	1e-07	2.44e-07	0	4e-09
0	0.50033325	0.49802664	0	-2.7173857e-18	-4.3540815e-18	1.5707964	0	0.49	1e-07	2.44e-07	0	4e-09
0	0.9975497	-5.5152185e-09	0	-2.723931e-18	-4.354105e-18	0	0	0.49	1e-07	2.48e-07	0	4e-09
0	0.5002557	0.49806285	0	-2.7173845e-18	-4.3540827e-18	1.5707964	0	0.49	1e-07	2.48e-07	0	4e-09
0	0.9975497	-4.148619e-09	0	-2.7236115e-18	-4.3541046e-18	0	0	0.49	1e-07	2.52e-07	0	4e-09
0	0.50018334	0.4980966	0	-2.7173826e-18	-4.3540835e-18	1.5707964	0	0.49	1e-07	2.52e-07	0	4e-09
0	0.99754965	-4.7898845e-09	0	-2.723313e-18	-4.3541046e-18	0	0	0.49	1e-07	2.56e-07	0	4e-09
0	0.5001159	0.49812827	0	-2.7173812e-18	-4.3540844e-18	1.5707964	0	0.49	1e-07	2.56e-07	0	4e-09
0	0.99754953	-5.3721747e-09	0	-2.723033e-18	-4.354104e-18	0	0	0.49	1e-07	2.6e-07	0	4e-09
0	0.500052	0.49815825	0	-2.7173812e-18	-4.3540856e-18	1.5707964	0	0.49	1e-07	2.6e-07	0	4e-09
0	0.9975495	-2.6698284e-09	0	-2.7227713e-18	-4.3541042e-18	0	0	0.49	1e-07	2.64e-07	0	4e-09
0	0.49999267	0.49818608	0	-2.7173801e-18	-4.354087e-18	1.5707964	0	0.49	1e-07	2.64e-07	0	4e-09
0	0.9975495	-3.736215e-09	0	-2.7225244e-18	-4.354104e-18	0	0	0.49	1e-07	2.68e-07	0	4e-09
0	0.49993685	0.49821243	0	-2.7173793e-18	-4.354087e-18	1.5707964	0	0.49	1e-07	2.68e-07	0	4e-09
0	0.99754936	-4.3622888e-09	0	-2.7222932e-18	-4.3541034e-18	0	0	0.49	1e-07	2.72e-07	0	4e-09
0	0.49988455	0.49823704	0	-2.7173783e-18	-4.3540877e-18	1.5707964	0	0.49	1e-07	2.72e-07	0	4e-09
0	0.99754936	-3.4999703e-09	0	-2.7220758e-18	-4.3541034e-18	0	0	0.49	1e-07	2.76e-07	0	4e-09
0	0.49983287	0.49826157	0	-2.717378e-18	-4.3540885e-18	1.5707964	0	0.49	1e-07	2.76e-07	0	4e-09
0	0.9975492	-3.1526446e-09	0	-2.7218707e-18	-4.3541026e-18	0	0	0.49	1e-07	2.8e-07	0	4e-09
0	0.49978894	0.49828237	0	-2.717377e-18	-4.3540885e-18	1.5707964	0	0.49	1e-07	2.8e-07	0	4e-09
0	0.9975492	-4.0885335e-09	0	-2.7216784e-18	-4.3541026e-18	0	0	0.49	1e-07	2.84e-07	0	4e-09
0	0.49974522	0.49830306	0	-2.7173772e-18	-4.3540897e-18	1.5707964	0	0.49	1e-07	2.84e-07	0	4e-09
0	0.9975491	-3.7616914e-09	0	-2.7214958e-18	-4.3541026e-18	0	0	0.49	1e-07	2.88e-07	0	4e-09
0	0.4997041	0.4983226	0	-2.7173768e-18	-4.3540897e-18	1.5707964	0	0.49	1e-07	2.88e-07	0	4e-09
0	0.9975491	-3.532744e-09	0	-2.7213235e-18	-4.354102e-18	0	0	0.49	1e-07	2.92e-07	0	4e-09
0	0.49966538	0.498341	0	-2.717376e-18	-4.35409e-18	1.5707964	0	0.49	1e-07	2.92e-07	0	4e-09
0	0.9975491	-6.1713563e-09	0	-2.7211614e-18	-4.354102e-18	0	0	0.49	1e-07	2.96e-07	0	4e-09
0	0.4996264	0.49835956	0	-2.7173758e-18	-4.3540906e-18	1.5707964	0	0.49	1e-07	2.96e-07	0	4e-09
0	0.997549	-4.4299275e-09	0	-2.7210077e-18	-4.3541017e-18	0	0	0.49	1e-07	3e-07	0	4e-09
0	0.49959192	0.49837598	0	-2.717375e-18	-4.3540906e-18	1.5707964	0	0.49	1e-07	3e-07	0	4e-09
0	0.997549	-2.6640032e-09	0	-2.7208628e-18	-4.3541013e-18	0	0	0.49	1e-07	3.04e-07	0	4e-09
0	0.49956104	0.4983907	0	-2.717375e-18	-4.354091e-18	1.5707964	0	0.49	1e-07	3.04e-07	0	4e-09
0	0.99754894	-2.6260019e-09	0	-2.7207255e-18	-4.3541013e-18	0	0	0.49	1e-07	3.08e-07	0	4e-09
0	0.49952972	0.49840567	0	-2.7173748e-18	-4.3540914e-18	1.5707964	0	0.49	1e-07	3.08e-07	0	4e-09
0	0.9975488	-5.264166e-09	0	-2.7205952e-18	-4.3541013e-18	0	0	0.49	1e-07	3.12e-07	0	4e-09
0	0.49950036	0.49841976	0	-2.7173741e-18	-4.3540914e-18	1.5707964	0	0.49	1e-07	3.12e-07	0	4e-09
0	0.9975488	-3.0821041e-09	0	-2.7204709e-18	-4.354101e-18	0	0	0.49	1e-07	3.16e-07	0	4e-09
0	0.4994704	0.49843404	0	-2.7173743e-18	-4.354092e-18	1.5707964	0	0.49	1e-07	3.16e-07	0	4e-09
0	0.99754876	-3.6721928e-09	0	-2.7203536e-18	-4.354101e-18	0	0	0.49	1e-07	3.2e-07	0	4e-09
0	0.49944595	0.4984458	0	-2.7173741e-18	-4.3540922e-18	1.5707964	0	0.49	1e-07	3.2e-07	0	4e-09
0	0.9975488	-3.368875e-09	0	-2.720242e-18	-4.3541005e-18	0	0	0.49	1e-07	3.24e-07	0	4e-09
0	0.4994205	0.498458	0	-2.7173735e-18	-4.3540922e-18	1.5707964	0	0.49	1e-07	3.24e-07	0	4e-09
0	0.99754864	-3.8502193e-09	0	-2.7201363e-18	-4.354101e-18	0	0	0.49	1e-07	3.28e-07	0	4e-09
0	0.4993968	0.49846932	0	-2.7173735e-18	-4.3540926e-18	1.5707964	0	0.49	1e-07	3.28e-07	0	4e-09
0	0.99754864	-4.8341375e-09	0	-2.7200354e-18	-4.3541005e-18	0	0	0.49	1e-07	3.32e-07	0	4e-09
0	0.49937397	0.49848038	0	-2.7173735e-18	-4.3540926e-18	1.5707964	0	0.49	1e-07	3.32e-07	0	4e-09
0	0.9975486	-4.2094404e-09	0	-2.7199392e-18	-4.3541e-18	0	0	0.49	1e-07	3.36e-07	0	4e-09
0	0.4993522	0.49849087	0	-2.7173735e-18	-4.3540926e-18	1.5707964	0	0.49	1e-07	3.36e-07	0	4e-09
0	0.9975486	-3.3538536e-09	0	-2.719848e-18	-4.3541e-18	0	0	0.49	1e-07	3.4e-07	0	4e-09
0	0.49933138	0.49850088	0	-2.7173733e-18	-4.3540926e-18	1.5707964	0	0.49	1e-07	3.4e-07	0	4e-09
0	0.9975486	-3.3616845e-09	0	-2.719761e-18	-4.3541e-18	0	0	0.49	1e-07	3.44e-07	0	4e-09
0	0.49931183	0.49851027	0	-2.7173735e-18	-4.3540935e-18	1.5707964	0	0.49	1e-07	3.44e-07	0	4e-09
0	0.9975486	-2.6123461e-09	0	-2.7196774e-18	-4.3540997e-18	0	0	0.49	1e-07	3.48e-07	0	4e-09
0	0.4992931	0.4985193	0	-2.7173727e-18	-4.3540926e-18	1.5707964	0	0.49	1e-07	3.48e-07	0	4e-09
0	0.9975486	-4.575169e-09	0	-2.7195988e-18	-4.3540997e-18	0	0	0.49	1e-07	3.52e-07	0	4e-09
0	0.4992757	0.49852774	0	-2.7173727e-18	-4.354093e-18	1.5707964	0	0.49	1e-07	3.52e-07	0	4e-09
0	0.99754846	-1.8653763e-09	0	-2.719523e-18	-4.3540997e-18	0	0	0.49	1e-07	3.56e-07	0	4e-09
0	0.4992583	0.49853614	0	-2.7173729e-18	-4.354093e-18	1.5707964	0	0.49	1e-07	3.56e-07	0	4e-09
0	0.99754846	-3.7190386e-09	0	-2.719451e-18	-4.3540997e-18	0	0	0.49	1e-07	3.6e-07	0	4e-09
0	0.49924198	0.49854407	0	-2.717373e-18	-4.354094e-18	1.5707964	0	0.49	1e-07	3.6e-07	0	4e-09
0	0.99754846	-3.893256e-09	0	-2.7193821e-18	-4.3540997e-18	0	0	0.49	1e-07	3.64e-07	0	4e-09
0	0.49922654	0.4985515	0	-2.7173723e-18	-4.354093e-18	1.5707964	0	0.49	1e-07	3.64e-07	0	4e-09
0	0.99754846	-3.5074064e-09	0	-2.7193161e-18	-4.3540997e-18	0	0	0.49	1e-07	3.68e-07	0	4e-09
0	0.4992116	0.49855873	0	-2.7173729e-18	-4.354094e-18	1.5707964	0	0.49	1e-07	3.68e-07	0	4e-09
0	0.99754846	-3.999771e-09	0	-2.7192525e-18	-4.3540992e-18	0	0	0.49	1e-07	3.72e-07	0	4e-09
0	0.499197	0.49856582	0	-2.7173723e-18	-4.3540935e-18	1.5707964	0	0.49	1e-07	3.72e-07	0	4e-09
0	0.9975484	-3.5830676e-09	0	-2.7191923e-18	-4.354099e-18	0	0	0.49	1e-07	3.76e-07	0	4e-09
0	0.4991837	0.4985723	0	-2.7173723e-18	-4.3540935e-18	1.5707964	0	0.49	1e-07	3.76e-07	0	4e-09
0	0.9975483	-4.78088e-09	0	-2.7191346e-18	-4.354099e-18	0	0	0.49	1e-07	3.8e-07	0	4e-09
0	0.4991705	0.4985786	0	-2.7173725e-18	-4.354094e-18	1.5707964	0	0.49	1e-07	3.8e-07	0	4e-09
0	0.9975483	-4.4999235e-09	0	-2.7190792e-18	-4.354099e-18	0	0	0.49	1e-07	3.84e-07	0	4e-09
0	0.4991581	0.4985847	0	-2.7173725e-18	-4.354093e-18	1.5707964	0	0.49	1e-07	3.84e-07	0	4e-09
0	0.9975483	-3.2377798e-09	0	-2.7190258e-18	-4.3540984e-18	0	0	0.49	1e-07	3.88e-07	0	4e-09
0	0.49914622	0.4985905	0	-2.7173725e-18	-4.354094e-18	1.5707964	0	0.49	1e-07	3.88e-07	0	4e-09
0	0.9975482	-4.0527404e-09	0	-2.718975e-18	-4.3540984e-18	0	0	0.49	1e-07	3.92e-07	0	4e-09
0	0.49913463	0.49859604	0	-2.717372e-18	-4.354094e-18	1.5707964	0	0.49	1e-07	3.92e-07	0	4e-09
0	0.9975482	-4.2128008e-09	0	-2.7189261e-18	-4.3540984e-18	0	0	0.49	1e-07	3.96e-07	0	4e-09
0	0.49912357	0.49860147	0	-2.7173725e-18	-4.3540935e-18	1.5707964	0	0.49	1e-07	3.96e-07	0	4e-09
0	0.9975482	-3.3448282e-09	0	-2.7188788e-18	-4.3540984e-18	0	0	0.49	1e-07	4e-07	0	4e-09
0	0.49911302	0.49860656	0	-2.7173725e-18	-4.3540943e-18	1.5707964	0	0.49	1e-07	4e-07	0	4e-09
0	0.9992567	-4.350724e-09	0	-5.3559583e-19	-1.090389e-18	0	0	0.49	5e-08	5e-08	0	2e-09
0	0.65062416	0.4764473	0	-4.1352723e-19	-1.0567089e-18	1.5707964	0	0.49	5e-08	5e-08	0	2e-09
0	0.9992949	-6.0891017e-09	0	-5.0839937e-19	-1.0904306e-18	0	0	0.49	5e-08	5.2e-08	0	2e-09
0	0.5754125	0.46663412	0	-4.384654e-19	-1.0824677e-18	1.5707964	0	0.49	5e-08	5.2e-08	0	2e-09
0	0.99931955	-4.858718e-09	0	-4.923859e-19	-1.0904574e-18	0	0	0.49	5e-08	5.4e-08	0	2e-09
0	0.5607779	0.47291136	0	-4.3441773e-19	-1.0853353e-18	1.5707964	0	0.49	5e-08	5.4e-08	0	2e-09
0	0.9993356	-5.739514e-09	0	-4.8146487e-19	-1.090475e-18	0	0	0.49	5e-08	5.6e-08	0	2e-09
0	0.5504903	0.47731158	0	-4.3232256e-19	-1.0869599e-18	1.5707964	0	0.49	5e-08	5.6e-08	0	2e-09
0	0.9993466	-5.7681913e-09	0	-4.7343434e-19	-1.0904871e-18	0	0	0.49	5e-08	5.8e-08	0	2e-09
0	0.54283184	0.48058647	0	-4.3109733e-19	-1.0879647e-18	1.5707964	0	0.49	5e-08	5.8e-08	0	2e-09
0	0.99935436	-5.1666555e-09	0	-4.672403e-19	-1.0904956e-18	0	0	0.49	5e-08	6e-08	0	2e-09
0	0.53689486	0.48312905	0	-4.3032138e-19	-1.0886265e-18	1.5707964	0	0.49	5e-08	6e-08	0	2e-09
0	0.9993602	-3.5184056e-09	0	-4.6230494e-19	-1.0905019e-18	0	0	0.49	5e-08	6.2e-08	0	2e-09
0	0.53215504	0.48516357	0	-4.2980183e-19	-1.0890818e-18	1.5707964	0	0.49	5e-08	6.2e-08	0	2e-09
0	0.9993643	-7.787195e-09	0	-4.582788e-19	-1.0905064e-18	0	0	0.49	5e-08	6.4e-08	0	2e-09
0	0.52828705	0.48682952	0	-4.2943916e-19	-1.0894064e-18	1.5707964	0	0.49	5e-08	6.4e-08	0	2e-09
0	0.9993675	-5.9860006e-09	0	-4.549348e-19	-1.0905098e-18	0	0	0.49	5e-08	6.6e-08	0	2e-09
0	0.5250754	0.48821846	0	-4.2917827e-19	-1.089644e-18	1.5707964	0	0.49	5e-08	6.6e-08	0	2e-09
0	0.99937004	-7.602032e-09	0	-4.521186e-19	-1.0905126e-18	0	0	0.49	5e-08	6.8e-08	0	2e-09
0	0.522373	0.4893922	0	-4.2898592e-19	-1.0898217e-18	1.5707964	0	0.49	5e-08	6.8e-08	0	2e-09
0	0.99937195	-4.287225e-09	0	-4.4971964e-19	-1.0905146e-18	0	0	0.49	5e-08	7e-08	0	2e-09
0	0.5200731	0.4903957	0	-4.2884088e-19	-1.0899571e-18	1.5707964	0	0.49	5e-08	7e-08	0	2e-09
0	0.99937356	-5.085062e-09	0	-4.476566e-19	-1.0905164e-18	0	0	0.49	5e-08	7.2e-08	0	2e-09
0	0.51809704	0.49126196	0	-4.2872986e-19	-1.0900614e-18	1.5707964	0	0.49	5e-08	7.2e-08	0	2e-09
0	0.9993746	-8.375758e-09	0	-4.4586793e-19	-1.0905176e-18	0	0	0.49	5e-08	7.4e-08	0	2e-09
0	0.5163861	0.49201554	0	-4.2864362e-19	-1.0901433e-18	1.5707964	0	0.49	5e-08	7.4e-08	0	2e-09
0	0.9993755	-3.652744e-09	0	-4.443062e-19	-1.0905186e-18	0	0	0.49	5e-08	7.6e-08	0	2e-09
0	0.5148931	0.4926762	0	-4.2857587e-19	-1.0902081e-18	1.5707964	0	0.49	5e-08	7.6e-08	0	2e-09
0	0.9993763	-5.9696137e-09	0	-4.429344e-19	-1.0905195e-18	0	0	0.49	5e-08	7.8e-08	0	2e-09
0	0.513584	0.49325818	0	-4.285218e-19	-1.09026e-18	1.5707964	0	0.49	5e-08	7.8e-08	0	2e-09
0	0.99937695	-4.397495e-09	0	-4.417224e-19	-1.0905202e-18	0	0	0.49	5e-08	8e-08	0	2e-09
0	0.5124293	0.49377355	0	-4.2847858e-19	-1.0903021e-18	1.5707964	0	0.49	5e-08	8e-08	0	2e-09
0	0.99937737	-5.88051e-09	0	-4.406465e-19	-1.0905207e-18	0	0	0.49	5e-08	8.2e-08	0	2e-09
0	0.5113737	0.49424744	0	-4.2844347e-19	-1.0903372e-18	1.5707964	0	0.49	5e-08	8.2e-08	0	2e-09
0	0.9993779	-4.495475e-09	0	-4.396869e-19	-1.0905211e-18	0	0	0.49	5e-08	8.4e-08	0	2e-09
0	0.51049024	0.4946444	0	-4.284146e-19	-1.0903642e-18	1.5707964	0	0.49	5e-08	8.4e-08	0	2e-09
0	0.9993781	-5.1666555e-09	0	-4.3882774e-19	-1.0905214e-18	0	0	0.49	5e-08	8.6e-08	0	2e-09
0	0.5096719	0.49501395	0	-4.2839105e-19	-1.0903873e-18	1.5707964	0	0.49	5e-08	8.6e-08	0	2e-09
0	0.99937844	-6.2715766e-09	0	-4.380556e-19	-1.0905218e-18	0	0	0.49	5e-08	8.8e-08	0	2e-09
0	0.5089383	0.4953467	0	-4.2837138e-19	-1.0904064e-18	1.5707964	0	0.49	5e-08	8.8e-08	0	2e-09
0	0.9993786	-5.9074803e-09	0	-4.373593e-19	-1.090522e-18	0	0	0.49	5e-08	9e-08	0	2e-09
0	0.50827545	0.4956483	0	-4.2835504e-19	-1.0904226e-18	1.5707964	0	0.49	5e-08	9e-08	0	2e-09
0	0.9993789	-7.086655e-09	0	-4.3672955e-19	-1.0905223e-18	0	0	0.49	5e-08	9.2e-08	0	2e-09
0	0.5076649	0.4959272	0	-4.2834147e-19	-1.0904364e-18	1.5707964	0	0.49	5e-08	9.2e-08	0	2e-09
0	0.9993791	-5.6739666e-09	0	-4.36158e-19	-1.0905223e-18	0	0	0.49	5e-08	9.4e-08	0	2e-09
0	0.50713634	0.49616897	0	-4.2833e-19	-1.0904475e-18	1.5707964	0	0.49	5e-08	9.4e-08	0	2e-09
0	0.99937916	-6.2502394e-09	0	-4.3563824e-19	-1.0905225e-18	0	0	0.49	5e-08	9.6e-08	0	2e-09
0	0.5066441	0.49639508	0	-4.2832027e-19	-1.0904572e-18	1.5707964	0	0.49	5e-08	9.6e-08	0	2e-09
0	0.9993793	-5.7811644e-09	0	-4.3516395e-19	-1.0905228e-18	0	0	0.49	5e-08	9.8e-08	0	2e-09
0	0.50619495	0.49660194	0	-4.2831182e-19	-1.0904654e-18	1.5707964	0	0.49	5e-08	9.8e-08	0	2e-09
0	0.99937934	-5.788846e-09	0	-4.347305e-19	-1.0905228e-18	0	0	0.49	5e-08	1e-07	0	2e-09
0	0.5057848	0.4967913	0	-4.2830476e-19	-1.0904723e-18	1.5707964	0	0.49	5e-08	1e-07	0	2e-09
0	0.99937934	-4.7822457e-09	0	-4.343333e-19	-1.090523e-18	0	0	0.49	5e-08	1.02e-07	0	2e-09
0	0.50540495	0.49696726	0	-4.2829884e-19	-1.0904786e-18	1.5707964	0	0.49	5e-08	1.02e-07	0	2e-09
0	0.9993795	-9.844008e-09	0	-4.3396873e-19	-1.090523e-18	0	0	0.49	5e-08	1.04e-07	0	2e-09
0	0.5050645	0.4971253	0	-4.2829342e-19	-1.0904837e-18	1.5707964	0	0.49	5e-08	1.04e-07	0	2e-09
0	0.9993795	-5.3537392e-09	0	-4.3363307e-19	-1.090523e-18	0	0	0.49	5e-08	1.06e-07	0	2e-09
0	0.5047488	0.49727207	0	-4.2828897e-19	-1.0904881e-18	1.5707964	0	0.49	5e-08	1.06e-07	0	2e-09
0	0.99937963	-5.3635545e-09	0	-4.333238e-19	-1.090523e-18	0	0	0.49	5e-08	1.08e-07	0	2e-09
0	0.50445443	0.4974093	0	-4.2828494e-19	-1.090492e-18	1.5707964	0	0.49	5e-08	1.08e-07	0	2e-09
0	0.9993795	-8.0937665e-09	0	-4.3303825e-19	-1.0905231e-18	0	0	0.49	5e-08	1.1e-07	0	2e-09
0	0.5041715	0.49754184	0	-4.2828142e-19	-1.0904955e-18	1.5707964	0	0.49	5e-08	1.1e-07	0	2e-09
0	0.99937963	-6.0846634e-09	0	-4.3277394e-19	-1.0905231e-18	0	0	0.49	5e-08	1.12e-07	0	2e-09
0	0.50393486	0.49765247	0	-4.2827863e-19	-1.0904985e-18	1.5707964	0	0.49	5e-08	1.12e-07	0	2e-09
0	0.99937963	-6.7172663e-09	0	-4.325291e-19	-1.0905231e-18	0	0	0.49	5e-08	1.14e-07	0	2e-09
0	0.50370437	0.4977606	0	-4.282762e-19	-1.090501e-18	1.5707964	0	0.49	5e-08	1.14e-07	0	2e-09
0	0.9993798	-7.120709e-09	0	-4.3230196e-19	-1.0905233e-18	0	0	0.49	5e-08	1.16e-07	0	2e-09
0	0.50348985	0.49786144	0	-4.2827374e-19	-1.0905033e-18	1.5707964	0	0.49	5e-08	1.16e-07	0	2e-09
0	0.9993797	-5.879486e-09	0	-4.3209085e-19	-1.0905233e-18	0	0	0.49	5e-08	1.18e-07	0	2e-09
0	0.50328434	0.49795827	0	-4.2827188e-19	-1.0905054e-18	1.5707964	0	0.49	5e-08	1.18e-07	0	2e-09
0	0.9993797	-5.2853752e-09	0	-4.318942e-19	-1.0905233e-18	0	0	0.49	5e-08	1.2e-07	0	2e-09
0	0.50310457	0.49804303	0	-4.2827015e-19	-1.0905071e-18	1.5707964	0	0.49	5e-08	1.2e-07	0	2e-09
0	0.9993798	-6.5984613e-09	0	-4.317111e-19	-1.0905233e-18	0	0	0.49	5e-08	1.22e-07	0	2e-09
0	0.50293267	0.4981243	0	-4.2826834e-19	-1.0905086e-18	1.5707964	0	0.49	5e-08	1.22e-07	0	2e-09
0	0.9993798	-5.893227e-09	0	-4.315402e-19	-1.0905233e-18	0	0	0.49	5e-08	1.24e-07	0	2e-09
0	0.50277054	0.49820098	0	-4.2826708e-19	-1.09051e-18	1.5707964	0	0.49	5e-08	1.24e-07	0	2e-09
0	0.9993798	-5.9170393e-09	0	-4.313805e-19	-1.0905233e-18	0	0	0.49	5e-08	1.26e-07	0	2e-09
0	0.502621	0.4982719	0	-4.28266e-19	-1.0905114e-18	1.5707964	0	0.49	5e-08	1.26e-07	0	2e-09
0	0.9993798	-4.8550266e-09	0	-4.3123107e-19	-1.0905233e-18	0	0	0.49	5e-08	1.28e-07	0	2e-09
0	0.50247884	0.49833944	0	-4.2826465e-19	-1.0905123e-18	1.5707964	0	0.49	5e-08	1.28e-07	0	2e-09
0	0.9993798	-3.729387e-09	0	-4.3109115e-19	-1.0905233e-18	0	0	0.49	5e-08	1.3e-07	0	2e-09
0	0.5023485	0.4984013	0	-4.2826371e-19	-1.0905134e-18	1.5707964	0	0.49	5e-08	1.3e-07	0	2e-09
0	0.9993798	-7.549329e-09	0	-4.309598e-19	-1.0905233e-18	0	0	0.49	5e-08	1.32e-07	0	2e-09
0	0.5022173	0.49846387	0	-4.282628e-19	-1.0905143e-18	1.5707964	0	0.49	5e-08	1.32e-07	0	2e-09
0	0.9993798	-6.384066e-09	0	-4.3083658e-19	-1.0905233e-18	0	0	0.49	5e-08	1.34e-07	0	2e-09
0	0.50210845	0.49851573	0	-4.282621e-19	-1.090515e-18	1.5707964	0	0.49	5e-08	1.34e-07	0	2e-09
0	0.9993798	-4.726556e-09	0	-4.3072098e-19	-1.0905233e-18	0	0	0.49	5e-08	1.36e-07	0	2e-09
0	0.50200063	0.4985672	0	-4.2826152e-19	-1.0905158e-18	1.5707964	0	0.49	5e-08	1.36e-07	0	2e-09
0	0.9993798	-5.4110934e-09	0	-4.306121e-19	-1.0905233e-18	0	0	0.49	5e-08	1.38e-07	0	2e-09
0	0.5019008	0.49861482	0	-4.2826082e-19	-1.0905164e-18	1.5707964	0	0.49	5e-08	1.38e-07	0	2e-09
0	0.9993798	-6.034735e-09	0	-4.3050956e-19	-1.0905234e-18	0	0	0.49	5e-08	1.4e-07	0	2e-09
0	0.50178844	0.49866873	0	-4.282604e-19	-1.0905171e-18	1.5707964	0	0.49	5e-08	1.4e-07	0	2e-09
0	0.9993798	-5.062189e-09	0	-4.3041314e-19	-1.0905233e-18	0	0	0.49	5e-08	1.42e-07	0	2e-09
0	0.5017114	0.49870548	0	-4.2825984e-19	-1.0905176e-18	1.5707964	0	0.49	5e-08	1.42e-07	0	2e-09
0	0.9993798	-5.288917e-09	0	-4.3032195e-19	-1.0905234e-18	0	0	0.49	5e-08	1.44e-07	0	2e-09
0	0.5016181	0.4987503	0	-4.2825935e-19	-1.090518e-18	1.5707964	0	0.49	5e-08	1.44e-07	0	2e-09
0	0.9993798	-4.5289315e-09	0	-4.3023587e-19	-1.0905233e-18	0	0	0.49	5e-08	1.46e-07	0	2e-09
0	0.50154495	0.49878538	0	-4.2825886e-19	-1.0905184e-18	1.5707964	0	0.49	5e-08	1.46e-07	0	2e-09
0	0.9993798	-4.8375943e-09	0	-4.3015468e-19	-1.0905233e-18	0	0	0.49	5e-08	1.48e-07	0	2e-09
0	0.50146794	0.49882233	0	-4.2825844e-19	-1.0905187e-18	1.5707964	0	0.49	5e-08	1.48e-07	0	2e-09
0	0.9993798	-5.9033836e-09	0	-4.3007785e-19	-1.0905233e-18	0	0	0.49	5e-08	1.5e-07	0	2e-09
0	0.5013955	0.4988572	0	-4.2825829e-19	-1.0905192e-18	1.5707964	0	0.49	5e-08	1.5e-07	0	2e-09
0	0.9993798	-2.910191e-09	0	-4.3000503e-19	-1.0905233e-18	0	0	0.49	5e-08	1.52e-07	0	2e-09
0	0.501327	0.49889022	0	-4.2825795e-19	-1.0905194e-18	1.5707964	0	0.49	5e-08	1.52e-07	0	2e-09
0	0.9993798	-6.4127432e-09	0	-4.29936e-19	-1.0905233e-18	0	0	0.49	5e-08	1.54e-07	0	2e-09
0	0.50126165	0.49892163	0	-4.2825772e-19	-1.0905198e-18	1.5707964	0	0.49	5e-08	1.54e-07	0	2e-09
0	0.9993798	-6.0445924e-09	0	-4.2987075e-19	-1.0905233e-18	0	0	0.49	5e-08	1.56e-07	0	2e-09
0	0.5012001	0.49895135	0	-4.2825733e-19	-1.09052e-18	1.5707964	0	0.49	5e-08	1.56e-07	0	2e-09
0	0.9993798	-4.787708e-09	0	-4.298089e-19	-1.0905233e-18	0	0	0.49	5e-08	1.58e-07	0	2e-09
0	0.5011442	0.49897835	0	-4.282571e-19	-1.0905202e-18	1.5707964	0	0.49	5e-08	1.58e-07	0	2e-09
0	0.9993798	-4.5224877e-09	0	-4.2974995e-19	-1.0905233e-18	0	0	0.49	5e-08	1.6e-07	0	2e-09
0	0.50108564	0.4990066	0	-4.2825692e-19	-1.0905204e-18	1.5707964	0	0.49	5e-08	1.6e-07	0	2e-09
0	0.9993798	-6.7254597e-09	0	-4.2969414e-19	-1.0905233e-18	0	0	0.49	5e-08	1.62e-07	0	2e-09
0	0.50103426	0.4990314	0	-4.2825666e-19	-1.0905207e-18	1.5707964	0	0.49	5e-08	1.62e-07	0	2e-09
0	0.9993798	-7.1780843e-09	0	-4.2964118e-19	-1.0905233e-18	0	0	0.49	5e-08	1.64e-07	0	2e-09
0	0.50098586	0.49905482	0	-4.282565e-19	-1.0905209e-18	1.5707964	0	0.49	5e-08	1.64e-07	0	2e-09
0	0.9993798	-4.721478e-09	0	-4.2959056e-19	-1.0905233e-18	0	0	0.49	5e-08	1.66e-07	0	2e-09
0	0.5009384	0.49907786	0	-4.2825635e-19	-1.090521e-18	1.5707964	0	0.49	5e-08	1.66e-07	0	2e-09
0	0.9993798	-8.064641e-09	0	-4.2954248e-19	-1.0905233e-18	0	0	0.49	5e-08	1.68e-07	0	2e-09
0	0.5008928	0.4990999	0	-4.2825606e-19	-1.090521e-18	1.5707964	0	0.49	5e-08	1.68e-07	0	2e-09
0	0.9993798	-4.0468833e-09	0	-4.2949676e-19	-1.0905233e-18	0	0	0.49	5e-08	1.7e-07	0	2e-09
0	0.50085	0.49912062	0	-4.2825604e-19	-1.0905213e-18	1.5707964	0	0.49	5e-08	1.7e-07	0	2e-09
0	0.9993798	-5.123725e-09	0	-4.2945312e-19	-1.0905233e-18	0	0	0.49	5e-08	1.72e-07	0	2e-09
0	0.5008083	0.49914086	0	-4.2825588e-19	-1.0905213e-18	1.5707964	0	0.49	5e-08	1.72e-07	0	2e-09
0	0.9993798	-5.7238103e-09	0	-4.2941148e-19	-1.0905233e-18	0	0	0.49	5e-08	1.74e-07	0	2e-09
0	0.50077206	0.49915847	0	-4.2825599e-19	-1.0905214e-18	1.5707964	0	0.49	5e-08	1.74e-07	0	2e-09
0	0.9993798	-6.8581234e-09	0	-4.293718e-19	-1.0905233e-18	0	0	0.49	5e-08	1.76e-07	0	2e-09
0	0.5007151	0.4991863	0	-4.2825575e-19	-1.0905217e-18	1.5707964	0	0.49	5e-08	1.76e-07	0	2e-09
0	0.9993798	-3.240511e-09	0	-4.293338e-19	-1.0905231e-18	0	0	0.49	5e-08	1.78e-07	0	2e-09
0	0.5006966	0.4991951	0	-4.282558e-19	-1.0905217e-18	1.5707964	0	0.49	5e-08	1.78e-07	0	2e-09
0	0.9993797	-6.154297e-09	0	-4.2929782e-19	-1.0905233e-18	0	0	0.49	5e-08	1.8e-07	0	2e-09
0	0.50066555	0.49921027	0	-4.2825562e-19	-1.0905218e-18	1.5707964	0	0.49	5e-08	1.8e-07	0	2e-09
0	0.9993798	-3.9854324e-09	0	-4.2926318e-19	-1.0905233e-18	0	0	0.49	5e-08	1.82e-07	0	2e-09
0	0.5006305	0.49922734	0	-4.2825547e-19	-1.0905219e-18	1.5707964	0	0.49	5e-08	1.82e-07	0	2e-09
0	0.9993798	-5.6105742e-09	0	-4.2923012e-19	-1.0905231e-18	0	0	0.49	5e-08	1.84e-07	0	2e-09
0	0.50059986	0.49924216	0	-4.2825534e-19	-1.0905219e-18	1.5707964	0	0.49	5e-08	1.84e-07	0	2e-09
0	0.9993797	-5.1605102e-09	0	-4.2919856e-19	-1.0905233e-18	0	0	0.49	5e-08	1.86e-07	0	2e-09
0	0.50056946	0.49925703	0	-4.2825531e-19	-1.090522e-18	1.5707964	0	0.49	5e-08	1.86e-07	0	2e-09
0	0.9993798	-5.3670215e-09	0	-4.2916834e-19	-1.0905231e-18	0	0	0.49	5e-08	1.88e-07	0	2e-09
0	0.50054204	0.4992704	0	-4.2825524e-19	-1.090522e-18	1.5707964	0	0.49	5e-08	1.88e-07	0	2e-09
0	0.9993798	-5.6842087e-09	0	-4.2913926e-19	-1.0905231e-18	0	0	0.49	5e-08	1.9e-07	0	2e-09
0	0.50051403	0.499284	0	-4.2825537e-19	-1.0905221e-18	1.5707964	0	0.49	5e-08	1.9e-07	0	2e-09
0	0.9993797	-5.565398e-09	0	-4.2911137e-19	-1.0905233e-18	0	0	0.49	5e-08	1.92e-07	0	2e-09
0	0.50048614	0.4992976	0	-4.282553e-19	-1.0905223e-18	1.5707964	0	0.49	5e-08	1.92e-07	0	2e-09
0	0.9993798	-6.3396848e-09	0	-4.2908477e-19	-1.0905233e-18	0	0	0.49	5e-08	1.94e-07	0	2e-09
0	0.5004508	0.49931496	0	-4.2825508e-19	-1.0905223e-18	1.5707964	0	0.49	5e-08	1.94e-07	0	2e-09
0	0.9993798	-4.347502e-09	0	-4.290594e-19	-1.0905232e-18	0	0	0.49	5e-08	1.96e-07	0	2e-09
0	0.50043964	0.49932033	0	-4.2825508e-19	-1.0905222e-18	1.5707964	0	0.49	5e-08	1.96e-07	0	2e-09
0	0.9993797	-4.2653756e-09	0	-4.2903475e-19	-1.0905233e-18	0	0	0.49	5e-08	1.98e-07	0	2e-09
0	0.50041753	0.49933118	0	-4.2825495e-19	-1.0905223e-18	1.5707964	0	0.49	5e-08	1.98e-07	0	2e-09
0	0.9993797	-4.391195e-09	0	-4.2901146e-19	-1.0905233e-18	0	0	0.49	5e-08	2e-07	0	2e-09
0	0.5003941	0.49934256	0	-4.2825493e-19	-1.0905223e-18	1.5707964	0	0.49	5e-08	2e-07	0	2e-09

