# t (s)	mx ()	my ()	mz ()	Jx (A/m2)	Jy (A/m2)	Jz (A/m2)	ext_bubbleposx (m)	ext_bubbleposy (m)	ext_bubbleposz (m)
0	1.900766e-05	2.7939677e-09	-0.9659947	-4e+11	0	0	-2.9138779e-08	-4.9922944e-10	0
1.001656289078169e-11	-2.5295685e-05	-1.0746531e-05	-0.9659914	-4e+11	0	0	-2.9024559e-08	-5.1218224e-10	0
2.0030400804245204e-11	1.265283e-05	1.8086284e-06	-0.9659856	-4e+11	0	0	-2.8917816e-08	-5.239563e-10	0
3.003492701171877e-11	-1.664322e-05	-6.781891e-06	-0.96598214	-4e+11	0	0	-2.8805756e-08	-5.370674e-10	0
4.000164157265996e-11	5.995274e-06	-3.6805868e-06	-0.9659829	-4e+11	0	0	-2.8695213e-08	-5.4992677e-10	0
5.000565600403007e-11	-8.181761e-06	-5.5935234e-06	-0.9659861	-4e+11	0	0	-2.8581702e-08	-5.6233407e-10	0
6.001010524681277e-11	2.579348e-06	-5.3029507e-06	-0.9659892	-4e+11	0	0	-2.846875e-08	-5.750656e-10	0
7.001447396086364e-11	-3.4229552e-06	-6.193295e-06	-0.9659901	-4e+11	0	0	-2.8355277e-08	-5.875778e-10	0
8.00185223424883e-11	2.0817706e-06	-6.493181e-06	-0.96598923	-4e+11	0	0	-2.8242706e-08	-6.000729e-10	0
9.002234700226218e-11	-2.073482e-07	-6.9215894e-06	-0.96598786	-4e+11	0	0	-2.8130135e-08	-6.1247446e-10	0
1.0002610194048398e-10	2.7440933e-06	-7.42916e-06	-0.96598756	-4e+11	0	0	-2.8016839e-08	-6.2502287e-10	0
1.1002985834931503e-10	2.3012244e-06	-7.856637e-06	-0.9659884	-4e+11	0	0	-2.7902566e-08	-6.372757e-10	0
1.2003362910628022e-10	4.1505427e-06	-8.283183e-06	-0.96599	-4e+11	0	0	-2.7788246e-08	-6.4956857e-10	0
1.300006555808346e-10	4.500688e-06	-8.753501e-06	-0.9659913	-4e+11	0	0	-2.7673751e-08	-6.6176226e-10	0
1.400044943980446e-10	5.941877e-06	-9.157695e-06	-0.9659921	-4e+11	0	0	-2.7558633e-08	-6.739674e-10	0
1.5000837050336674e-10	6.690036e-06	-9.619631e-06	-0.9659925	-4e+11	0	0	-2.7444e-08	-6.861229e-10	0
1.6001224162058778e-10	7.979352e-06	-1.00284815e-05	-0.9659927	-4e+11	0	0	-2.7328667e-08	-6.982155e-10	0
1.700161175231395e-10	8.949048e-06	-1.0477379e-05	-0.96599346	-4e+11	0	0	-2.7212723e-08	-7.1031186e-10	0
1.800199746225747e-10	1.0213453e-05	-1.0890886e-05	-0.9659946	-4e+11	0	0	-2.7096764e-08	-7.221565e-10	0
1.90023799027956e-10	1.1336919e-05	-1.1315569e-05	-0.9659959	-4e+11	0	0	-2.6980416e-08	-7.341175e-10	0
2.0002759545769485e-10	1.2628333e-05	-1.1732802e-05	-0.9659972	-4e+11	0	0	-2.6863678e-08	-7.458458e-10	0
2.100313558204362e-10	1.387846e-05	-1.2144446e-05	-0.96599835	-4e+11	0	0	-2.6746621e-08	-7.5764844e-10	0
2.2003508930051927e-10	1.5235591e-05	-1.2557954e-05	-0.9659994	-4e+11	0	0	-2.6629792e-08	-7.693615e-10	0
2.3000200347725605e-10	1.6593676e-05	-1.2960285e-05	-0.9660006	-4e+11	0	0	-2.6512597e-08	-7.809429e-10	0
2.400056952281638e-10	1.803261e-05	-1.3366342e-05	-0.9660021	-4e+11	0	0	-2.6394874e-08	-7.923832e-10	0
2.500093568203098e-10	1.9509156e-05	-1.3758428e-05	-0.9660037	-4e+11	0	0	-2.6276787e-08	-8.039074e-10	0
2.600130137505549e-10	2.1047597e-05	-1.41514465e-05	-0.96600544	-4e+11	0	0	-2.6158485e-08	-8.152332e-10	0
2.700166477161282e-10	2.2637872e-05	-1.4538877e-05	-0.96600723	-4e+11	0	0	-2.6039924e-08	-8.2655904e-10	0
2.800202704575762e-10	2.4292027e-05	-1.4913268e-05	-0.96600914	-4e+11	0	0	-2.5921029e-08	-8.377419e-10	0
2.9002388651743935e-10	2.6004236e-05	-1.5288591e-05	-0.96601105	-4e+11	0	0	-2.5801986e-08	-8.487949e-10	0
3.000274947122733e-10	2.7782105e-05	-1.5655532e-05	-0.9660132	-4e+11	0	0	-2.568235e-08	-8.597374e-10	0
3.1003110755754916e-10	2.9626435e-05	-1.601316e-05	-0.9660155	-4e+11	0	0	-2.5562692e-08	-8.7060736e-10	0
3.2003472958721765e-10	3.1537784e-05	-1.6370788e-05	-0.966018	-4e+11	0	0	-2.5442588e-08	-8.8132285e-10	0
3.300015654045142e-10	3.3518518e-05	-1.6712584e-05	-0.9660206	-4e+11	0	0	-2.5322883e-08	-8.918743e-10	0
3.4000517982979744e-10	3.557856e-05	-1.7052516e-05	-0.9660234	-4e+11	0	0	-2.52024e-08	-9.024029e-10	0
3.500088172113922e-10	3.7717655e-05	-1.7380342e-05	-0.9660264	-4e+11	0	0	-2.5081542e-08	-9.1271785e-10	0
3.600124590902044e-10	3.994107e-05	-1.7700717e-05	-0.9660296	-4e+11	0	0	-2.4960473e-08	-9.2284014e-10	0
3.700160883580376e-10	4.2246604e-05	-1.8011779e-05	-0.9660329	-4e+11	0	0	-2.4839126e-08	-9.32888e-10	0
3.8001973888001836e-10	4.46437e-05	-1.8309802e-05	-0.9660365	-4e+11	0	0	-2.471759e-08	-9.427681e-10	0
3.9002339423555095e-10	4.7133413e-05	-1.859758e-05	-0.9660404	-4e+11	0	0	-2.4595757e-08	-9.524384e-10	0
4.00027070008271e-10	4.9717928e-05	-1.887139e-05	-0.9660444	-4e+11	0	0	-2.4473877e-08	-9.619732e-10	0
4.100307563770689e-10	5.2401796e-05	-1.9137748e-05	-0.9660489	-4e+11	0	0	-2.4351433e-08	-9.712067e-10	0
4.200344470400571e-10	5.519547e-05	-1.938641e-05	-0.96605355	-4e+11	0	0	-2.4228706e-08	-9.802418e-10	0
4.3000138294288534e-10	5.8080797e-05	-1.9619241e-05	-0.96605855	-4e+11	0	0	-2.4106544e-08	-9.890327e-10	0
4.400050994166234e-10	6.109175e-05	-1.9841827e-05	-0.9660639	-4e+11	0	0	-2.3983405e-08	-9.976482e-10	0
4.5000882320599054e-10	6.422337e-05	-2.0042062e-05	-0.96606964	-4e+11	0	0	-2.3860153e-08	-1.0059529e-09	0
4.600125635673023e-10	6.747065e-05	-2.0233914e-05	-0.9660756	-4e+11	0	0	-2.3736558e-08	-1.0139942e-09	0
4.700163071729564e-10	7.0851915e-05	-2.0398758e-05	-0.9660821	-4e+11	0	0	-2.3612861e-08	-1.0217285e-09	0
4.800200798177681e-10	7.435693e-05	-2.0544045e-05	-0.96608895	-4e+11	0	0	-2.348886e-08	-1.0291176e-09	0
4.900238472424e-10	7.8005665e-05	-2.0672567e-05	-0.96609634	-4e+11	0	0	-2.336477e-08	-1.036129e-09	0
5.000276225077387e-10	8.178799e-05	-2.0778738e-05	-0.9661042	-4e+11	0	0	-2.3240318e-08	-1.0429249e-09	0
5.100314095468719e-10	8.572346e-05	-2.0856038e-05	-0.96611255	-4e+11	0	0	-2.311548e-08	-1.0492477e-09	0
5.200351904372709e-10	8.980695e-05	-2.0914711e-05	-0.9661215	-4e+11	0	0	-2.2990838e-08	-1.055109e-09	0
5.300022034972586e-10	9.403089e-05	-2.0939857e-05	-0.966131	-4e+11	0	0	-2.2866349e-08	-1.0605126e-09	0
5.400059903127166e-10	9.843317e-05	-2.094172e-05	-0.9661411	-4e+11	0	0	-2.2741478e-08	-1.0655002e-09	0
5.500097953952461e-10	0.000102996906	-2.0908192e-05	-0.9661519	-4e+11	0	0	-2.261634e-08	-1.069952e-09	0
5.600136096298148e-10	0.00010773678	-2.0849518e-05	-0.96616334	-4e+11	0	0	-2.2490601e-08	-1.0738945e-09	0
5.70017421596837e-10	0.00011264744	-2.0747073e-05	-0.9661757	-4e+11	0	0	-2.2364922e-08	-1.077135e-09	0
5.800212485604233e-10	0.00011773985	-2.0619482e-05	-0.9661888	-4e+11	0	0	-2.2239579e-08	-1.0798397e-09	0
5.90025071550205e-10	0.00012302052	-2.0448118e-05	-0.9662026	-4e+11	0	0	-2.2113632e-08	-1.0819168e-09	0
6.000289092775386e-10	0.00012848296	-2.0233914e-05	-0.96621734	-4e+11	0	0	-2.1987496e-08	-1.0831757e-09	0
6.100327426084998e-10	0.0001341395	-1.9987114e-05	-0.96623296	-4e+11	0	0	-2.1861588e-08	-1.0837784e-09	0
6.200365793944992e-10	0.00013999379	-1.968816e-05	-0.9662497	-4e+11	0	0	-2.1735115e-08	-1.0835972e-09	0
6.300036614984954e-10	0.00014601591	-1.9344501e-05	-0.9662672	-4e+11	0	0	-2.1609925e-08	-1.0825691e-09	0
6.400075150238388e-10	0.00015226362	-1.8954277e-05	-0.96628594	-4e+11	0	0	-2.148378e-08	-1.0804939e-09	0
6.500113754449601e-10	0.00015871065	-1.8510036e-05	-0.9663056	-4e+11	0	0	-2.135759e-08	-1.0775452e-09	0
6.600152584398966e-10	0.00016535782	-1.8013641e-05	-0.9663267	-4e+11	0	0	-2.1231484e-08	-1.073534e-09	0
6.700191352426561e-10	0.00017220754	-1.7464161e-05	-0.96634877	-4e+11	0	0	-2.1105363e-08	-1.0685501e-09	0
6.800230281995589e-10	0.000179249	-1.6855076e-05	-0.96637213	-4e+11	0	0	-2.097911e-08	-1.0624065e-09	0
6.900269177079641e-10	0.0001864947	-1.6184524e-05	-0.9663967	-4e+11	0	0	-2.0853387e-08	-1.0550003e-09	0
7.000308213653009e-10	0.00019392837	-1.545623e-05	-0.9664225	-4e+11	0	0	-2.0727699e-08	-1.0463066e-09	0
7.100347393294815e-10	0.00020154798	-1.466088e-05	-0.9664498	-4e+11	0	0	-2.0602272e-08	-1.036293e-09	0
7.200018765251926e-10	0.00020932355	-1.38077885e-05	-0.9664782	-4e+11	0	0	-2.0477112e-08	-1.0249062e-09	0
7.300057971948646e-10	0.00021729912	-1.2882985e-05	-0.96650803	-4e+11	0	0	-2.035237e-08	-1.012165e-09	0
7.400097347946104e-10	0.00022543836	-1.1885539e-05	-0.9665394	-4e+11	0	0	-2.0227546e-08	-9.977283e-10	0
7.500136696513445e-10	0.00023373333	-1.0826625e-05	-0.966572	-4e+11	0	0	-2.010305e-08	-9.816513e-10	0
7.600176288011374e-10	0.0002421653	-9.690411e-06	-0.96660596	-4e+11	0	0	-1.9979096e-08	-9.639148e-10	0
7.700215821344471e-10	0.0002507325	-8.492731e-06	-0.9666414	-4e+11	0	0	-1.9855591e-08	-9.444008e-10	0
7.80025542120856e-10	0.00025940491	-7.212162e-06	-0.96667814	-4e+11	0	0	-1.9732552e-08	-9.23172e-10	0
7.900295009168884e-10	0.0002681782	-5.867332e-06	-0.9667162	-4e+11	0	0	-1.9610177e-08	-8.9997293e-10	0
8.000334973424648e-10	0.00027702868	-4.4470653e-06	-0.9667555	-4e+11	0	0	-1.9488175e-08	-8.7492563e-10	0
8.100007045035045e-10	0.00028590637	-2.962537e-06	-0.9667959	-4e+11	0	0	-1.9367455e-08	-8.479519e-10	0
8.200047084917054e-10	0.00029485373	-1.3951212e-06	-0.96683747	-4e+11	0	0	-1.9247132e-08	-8.188076e-10	0
8.300087167017086e-10	0.0003038209	2.3283064e-07	-0.9668803	-4e+11	0	0	-1.912773e-08	-7.876339e-10	0
8.400127407925264e-10	0.00031277916	1.9362196e-06	-0.9669242	-4e+11	0	0	-1.9008706e-08	-7.5422096e-10	0
8.500167591968404e-10	0.00032171485	3.701076e-06	-0.9669691	-4e+11	0	0	-1.889106e-08	-7.1865275e-10	0
8.600207829547805e-10	0.00033059463	5.5395067e-06	-0.96701473	-4e+11	0	0	-1.8774285e-08	-6.809292e-10	0
8.700248204226149e-10	0.0003394041	7.4366108e-06	-0.96706116	-4e+11	0	0	-1.8658723e-08	-6.409512e-10	0
8.800288753619801e-10	0.00034811345	9.397045e-06	-0.9671083	-4e+11	0	0	-1.8544464e-08	-5.987282e-10	0
8.900329298839057e-10	0.00035670138	1.1416152e-05	-0.96715605	-4e+11	0	0	-1.8430816e-08	-5.5423355e-10	0
9.000002069406413e-10	0.00036511786	1.34874135e-05	-0.96720403	-4e+11	0	0	-1.8319442e-08	-5.07555e-10	0
9.100042696856744e-10	0.0003733942	1.5615486e-05	-0.9672526	-4e+11	0	0	-1.8208809e-08	-4.5855714e-10	0
9.200083487027458e-10	0.00038149123	1.78013e-05	-0.96730125	-4e+11	0	0	-1.8099326e-08	-4.0736198e-10	0
9.300124514883072e-10	0.00038937575	2.0034611e-05	-0.96735036	-4e+11	0	0	-1.7991539e-08	-3.5396386e-10	0
9.40016551348052e-10	0.00039704004	2.2313558e-05	-0.9673993	-4e+11	0	0	-1.7885277e-08	-2.9831695e-10	0
9.50020655962557e-10	0.00040446216	2.4637207e-05	-0.96744835	-4e+11	0	0	-1.7780533e-08	-2.4051094e-10	0
9.60024773464542e-10	0.000411626	2.7001835e-05	-0.96749705	-4e+11	0	0	-1.767765e-08	-1.8055153e-10	0
9.700288865688526e-10	0.00041852563	2.9400922e-05	-0.9675457	-4e+11	0	0	-1.7576072e-08	-1.1855697e-10	0
9.80033012247181e-10	0.0004251383	3.1840056e-05	-0.967594	-4e+11	0	0	-1.7476792e-08	-5.4599762e-11	0
9.900003671709125e-10	0.00043144313	3.430154e-05	-0.96764183	-4e+11	0	0	-1.7379111e-08	1.10588075e-11	0
1.0000045093899924e-09	0.00043747076	3.680121e-05	-0.9676893	-4e+11	0	0	-1.7283408e-08	7.873917e-11	0
1.0100086648349403e-09	0.00044319849	3.933627e-05	-0.96773636	-4e+11	0	0	-1.7189361e-08	1.482277e-10	0
1.0200128189185046e-09	0.00044861578	4.1893683e-05	-0.9677828	-4e+11	0	0	-1.7096855e-08	2.1945572e-10	0
1.0300169688895388e-09	0.00045373008	4.4472516e-05	-0.96782887	-4e+11	0	0	-1.7006515e-08	2.9227448e-10	0
1.0400211329623707e-09	0.0004585348	4.7076494e-05	-0.9678742	-4e+11	0	0	-1.6918365e-08	3.665886e-10	0
1.0500253063397117e-09	0.0004630315	4.9704686e-05	-0.9679191	-4e+11	0	0	-1.6831681e-08	4.4234086e-10	0
1.060029485238641e-09	0.00046723062	5.2344985e-05	-0.96796334	-4e+11	0	0	-1.6747581e-08	5.19268e-10	0
1.070033661465746e-09	0.00047112867	5.5014156e-05	-0.968007	-4e+11	0	0	-1.6664787e-08	5.974655e-10	0
1.0800010684271072e-09	0.00047472707	5.76796e-05	-0.96805	-4e+11	0	0	-1.6584679e-08	6.7663575e-10	0
1.090005282218459e-09	0.00047804974	6.0380436e-05	-0.96809256	-4e+11	0	0	-1.6506156e-08	7.5699996e-10	0
1.100009477663939e-09	0.000481099	6.309152e-05	-0.9681347	-4e+11	0	0	-1.6429635e-08	8.383827e-10	0
1.1100136735156235e-09	0.00048388238	6.581843e-05	-0.96817625	-4e+11	0	0	-1.6355331e-08	9.205513e-10	0
1.120017897989069e-09	0.000486405	6.856583e-05	-0.96821743	-4e+11	0	0	-1.6282723e-08	1.0035897e-09	0
1.1300221113630171e-09	0.00048868475	7.131882e-05	-0.9682582	-4e+11	0	0	-1.6212288e-08	1.0871086e-09	0
1.1400263508491964e-09	0.0004907256	7.408857e-05	-0.9682987	-4e+11	0	0	-1.6143883e-08	1.1713104e-09	0
1.1500305477390207e-09	0.0004925382	7.686764e-05	-0.9683387	-4e+11	0	0	-1.6077621e-08	1.2559662e-09	0
1.1600347722837771e-09	0.00049413973	7.9667196e-05	-0.96837866	-4e+11	0	0	-1.6013313e-08	1.3409538e-09	0
1.1700022181924824e-09	0.00049552537	8.246396e-05	-0.9684181	-4e+11	0	0	-1.5951523e-08	1.4260597e-09	0
1.1800064600052514e-09	0.00049672625	8.528866e-05	-0.9684576	-4e+11	0	0	-1.5891334e-08	1.511673e-09	0
1.1900106767947291e-09	0.00049773994	8.811802e-05	-0.968497	-4e+11	0	0	-1.5832915e-08	1.5974769e-09	0
1.2000149066063129e-09	0.00049858366	9.096693e-05	-0.9685363	-4e+11	0	0	-1.5777015e-08	1.6833763e-09	0
1.2100191516322224e-09	0.00049925514	9.3827024e-05	-0.96857554	-4e+11	0	0	-1.5722916e-08	1.7692833e-09	0
1.2200233997056506e-09	0.00049977814	9.669643e-05	-0.96861494	-4e+11	0	0	-1.5670707e-08	1.8552856e-09	0
1.230027630881556e-09	0.0005001501	9.95826e-05	-0.9686543	-4e+11	0	0	-1.5620795e-08	1.9411697e-09	0
1.2400318662787495e-09	0.00050038705	0.00010247901	-0.96869373	-4e+11	0	0	-1.5573006e-08	2.0270348e-09	0
1.2500361048812831e-09	0.0005004894	0.00010539219	-0.9687334	-4e+11	0	0	-1.5527275e-08	2.1126365e-09	0
1.2600035822253398e-09	0.0005004742	0.0001083035	-0.96877295	-4e+11	0	0	-1.5483666e-08	2.19775e-09	0
1.2700078220534846e-09	0.0005003328	0.00011124136	-0.96881294	-4e+11	0	0	-1.5441962e-08	2.2829856e-09	0
1.2800120739670386e-09	0.00050009415	0.00011418946	-0.96885306	-4e+11	0	0	-1.5402588e-08	2.3678512e-09	0
1.2900163043534964e-09	0.0004997413	0.00011716224	-0.9688935	-4e+11	0	0	-1.5365265e-08	2.4524651e-09	0
1.3000205583593688e-09	0.0004992939	0.00012013223	-0.9689342	-4e+11	0	0	-1.5329636e-08	2.5367202e-09	0
1.3100248072753788e-09	0.00049875147	0.00012312876	-0.9689751	-4e+11	0	0	-1.5296562e-08	2.6207008e-09	0
1.3200290557323014e-09	0.0004981193	0.00012613088	-0.96901643	-4e+11	0	0	-1.526538e-08	2.7042237e-09	0
1.3300332896059156e-09	0.0004974009	0.00012915302	-0.969058	-4e+11	0	0	-1.5236793e-08	2.7873763e-09	0
1.3400007732489903e-09	0.0004966017	0.00013217796	-0.9690997	-4e+11	0	0	-1.5209954e-08	2.8697167e-09	0
1.3500050012341051e-09	0.0004957194	0.00013522524	-0.96914184	-4e+11	0	0	-1.5185432e-08	2.9519005e-09	0
1.3600092490784345e-09	0.00049476285	0.00013828743	-0.9691843	-4e+11	0	0	-1.516307e-08	3.0336762e-09	0
1.3700134804900293e-09	0.0004937248	0.00014136545	-0.9692271	-4e+11	0	0	-1.5142845e-08	3.1149445e-09	0
1.3800177201916879e-09	0.00049261976	0.00014445372	-0.9692701	-4e+11	0	0	-1.5125206e-08	3.1956902e-09	0
1.3900219394562895e-09	0.000491434	0.00014755921	-0.9693135	-4e+11	0	0	-1.5109123e-08	3.2759284e-09	0
1.4000261644615198e-09	0.0004901801	0.00015067495	-0.96935713	-4e+11	0	0	-1.5095994e-08	3.3557739e-09	0
1.4100304129359658e-09	0.00048885145	0.00015380792	-0.96940106	-4e+11	0	0	-1.5084884e-08	3.4349708e-09	0
1.4200346175072608e-09	0.00048744935	0.00015694601	-0.96944517	-4e+11	0	0	-1.5076141e-08	3.5135346e-09	0
1.430002060754314e-09	0.00048598036	0.00016009249	-0.96948934	-4e+11	0	0	-1.5069848e-08	3.5913659e-09	0
1.4400062669252127e-09	0.00048442653	0.00016326085	-0.9695339	-4e+11	0	0	-1.5065552e-08	3.6687813e-09	0
1.4500104728358736e-09	0.0004827982	0.00016644038	-0.9695786	-4e+11	0	0	-1.5063714e-08	3.7457006e-09	0
1.4600146791766854e-09	0.00048108932	0.00016962597	-0.9696233	-4e+11	0	0	-1.5064385e-08	3.8219987e-09	0
1.4700188728735967e-09	0.00047929765	0.00017282693	-0.9696682	-4e+11	0	0	-1.5067467e-08	3.897579e-09	0
1.48002306677095e-09	0.00047741568	0.00017603254	-0.96971315	-4e+11	0	0	-1.5072777e-08	3.9725343e-09	0
1.4900272596506548e-09	0.0004754488	0.000179247	-0.969758	-4e+11	0	0	-1.508043e-08	4.046997e-09	0
1.5000314451102567e-09	0.00047338044	0.00018246938	-0.9698027	-4e+11	0	0	-1.5090972e-08	4.120823e-09	0
1.5100356266650268e-09	0.00047121267	0.00018569827	-0.9698473	-4e+11	0	0	-1.5104172e-08	4.1938706e-09	0
1.5200030283778415e-09	0.0004689493	0.0001889132	-0.9698914	-4e+11	0	0	-1.51194e-08	4.265854e-09	0
1.5300072001483498e-09	0.0004665608	0.00019214768	-0.96993554	-4e+11	0	0	-1.5137566e-08	4.337376e-09	0
1.5400113733667782e-09	0.00046405103	0.00019537844	-0.9699791	-4e+11	0	0	-1.5157914e-08	4.4082795e-09	0
1.550015519747876e-09	0.00046141326	0.00019860175	-0.9700223	-4e+11	0	0	-1.5181115e-08	4.478241e-09	0
1.5600196580310635e-09	0.00045863778	0.00020182785	-0.97006476	-4e+11	0	0	-1.5207116e-08	4.547226e-09	0
1.5700238239075545e-09	0.0004557156	0.00020504557	-0.9701065	-4e+11	0	0	-1.5235337e-08	4.615482e-09	0
1.5800279709187723e-09	0.00045263523	0.00020825118	-0.9701475	-4e+11	0	0	-1.5266373e-08	4.682766e-09	0
1.59003209967149e-09	0.00044938744	0.00021144515	-0.9701874	-4e+11	0	0	-1.5300591e-08	4.749203e-09	0
1.60003622673085e-09	0.0004459646	0.00021462422	-0.97022635	-4e+11	0	0	-1.5337342e-08	4.814602e-09	0
1.6100035934017545e-09	0.00044236446	0.00021777116	-0.97026384	-4e+11	0	0	-1.5376527e-08	4.8786353e-09	0
1.6200076982402669e-09	0.00043855386	0.00022090785	-0.9703001	-4e+11	0	0	-1.541848e-08	4.941868e-09	0
1.6300118126659134e-09	0.00043453136	0.00022401614	-0.9703348	-4e+11	0	0	-1.5463693e-08	5.0038604e-09	0
1.6400159092237448e-09	0.000430294	0.00022709928	-0.9703679	-4e+11	0	0	-1.551175e-08	5.0647126e-09	0
1.6500200067533886e-09	0.0004258183	0.00023014424	-0.9703992	-4e+11	0	0	-1.556221e-08	5.1241265e-09	0
1.660024085848879e-09	0.0004211092	0.00023315568	-0.9704284	-4e+11	0	0	-1.5615868e-08	5.1821405e-09	0
1.6700281720757913e-09	0.00041614595	0.00023612287	-0.9704557	-4e+11	0	0	-1.5672386e-08	5.2387925e-09	0
1.680032240379983e-09	0.00041093345	0.00023904443	-0.9704806	-4e+11	0	0	-1.5731628e-08	5.2939875e-09	0
1.6900363030245648e-09	0.00040545603	0.00024191895	-0.9705033	-4e+11	0	0	-1.5793617e-08	5.3475686e-09	0
1.7000035755916999e-09	0.0003997402	0.0002447199	-0.9705233	-4e+11	0	0	-1.5858367e-08	5.399334e-09	0
1.7100076252530952e-09	0.0003937352	0.00024748454	-0.9705408	-4e+11	0	0	-1.5926124e-08	5.449524e-09	0
1.7200116647217662e-09	0.00038746692	0.0002501756	-0.9705557	-4e+11	0	0	-1.5996545e-08	5.4980203e-09	0
1.7300157109985787e-09	0.0003809381	0.00025280705	-0.9705679	-4e+11	0	0	-1.6069702e-08	5.5446203e-09	0
1.7400197405788234e-09	0.00037414994	0.00025536306	-0.97057736	-4e+11	0	0	-1.614602e-08	5.5891e-09	0
1.75002376480897e-09	0.0003671195	0.00025784597	-0.9705839	-4e+11	0	0	-1.622461e-08	5.6317826e-09	0
1.7600277847161777e-09	0.00035984756	0.00026024878	-0.97058773	-4e+11	0	0	-1.630587e-08	5.6723555e-09	0
1.7700317851266756e-09	0.00035235737	0.00026256638	-0.9705888	-4e+11	0	0	-1.6389839e-08	5.7110063e-09	0
1.780035766241414e-09	0.00034465673	0.0002647955	-0.970587	-4e+11	0	0	-1.647609e-08	5.7473715e-09	0
1.790002989575912e-09	0.000336802	0.00026692636	-0.97058254	-4e+11	0	0	-1.656437e-08	5.7814864e-09	0
1.8000069679703023e-09	0.00032874232	0.00026897434	-0.97057545	-4e+11	0	0	-1.6654953e-08	5.8135834e-09	0
1.8100109523615673e-09	0.00032054208	0.000270918	-0.9705658	-4e+11	0	0	-1.6747903e-08	5.843395e-09	0
1.8200149343773799e-09	0.0003122189	0.00027276482	-0.9705536	-4e+11	0	0	-1.6842804e-08	5.8709486e-09	0
1.8300188969079986e-09	0.0003037931	0.00027450547	-0.9705391	-4e+11	0	0	-1.6939598e-08	5.8964083e-09	0
1.840022852084554e-09	0.00029529768	0.00027613807	-0.97052234	-4e+11	0	0	-1.7038177e-08	5.919506e-09	0
1.8500268095306911e-09	0.0002867494	0.00027766824	-0.9705035	-4e+11	0	0	-1.713868e-08	5.9404526e-09	0
1.8600307597530075e-09	0.0002781816	0.00027908478	-0.9704827	-4e+11	0	0	-1.724044e-08	5.959095e-09	0
1.8700347066047488e-09	0.0002696129	0.0002803933	-0.97046006	-4e+11	0	0	-1.7343833e-08	5.975609e-09	0
1.880001848931817e-09	0.00026110187	0.00028157793	-0.9704357	-4e+11	0	0	-1.7447913e-08	5.9901084e-09	0
1.890005768558709e-09	0.00025261176	0.00028266571	-0.97040975	-4e+11	0	0	-1.7553353e-08	6.002392e-09	0
1.9000096810950554e-09	0.00024418387	0.00028363522	-0.97038245	-4e+11	0	0	-1.7659897e-08	6.0126837e-09	0
1.9100136022573023e-09	0.00023585538	0.0002844981	-0.97035384	-4e+11	0	0	-1.7767272e-08	6.021038e-09	0
1.9200175057054884e-09	0.00022763119	0.00028524548	-0.97032404	-4e+11	0	0	-1.787555e-08	6.0273857e-09	0
1.9300214051465486e-09	0.00021953843	0.0002858895	-0.9702933	-4e+11	0	0	-1.7984451e-08	6.0318337e-09	0
1.940025306513449e-09	0.00021158232	0.00028641894	-0.9702615	-4e+11	0	0	-1.8093987e-08	6.034481e-09	0
1.9500291987260065e-09	0.00020379055	0.00028684968	-0.970229	-4e+11	0	0	-1.82034e-08	6.0355263e-09	0
1.960033079599416e-09	0.00019615782	0.00028717285	-0.9701957	-4e+11	0	0	-1.8313065e-08	6.034771e-09	0
1.9700001836878487e-09	0.00018874039	0.00028739963	-0.97016203	-4e+11	0	0	-1.842311e-08	6.0324363e-09	0
1.980004060597113e-09	0.0001814699	0.00028752536	-0.9701277	-4e+11	0	0	-1.8533141e-08	6.0286407e-09	0
1.9900079358252043e-09	0.00017440457	0.00028755935	-0.9700929	-4e+11	0	0	-1.8643304e-08	6.0232392e-09	0
2.00001178945646e-09	0.00016752753	0.00028750487	-0.9700577	-4e+11	0	0	-1.875312e-08	6.016548e-09	0
2.0100156562385845e-09	0.0001608601	0.00028735446	-0.9700223	-4e+11	0	0	-1.886306e-08	6.008522e-09	0
2.020019514823493e-09	0.00015439221	0.0002871314	-0.96998656	-4e+11	0	0	-1.8972557e-08	5.9992944e-09	0
2.0300233589918654e-09	0.00014813241	0.00028681755	-0.9699507	-4e+11	0	0	-1.908188e-08	5.9887695e-09	0
2.0400272070794525e-09	0.00014207874	0.00028643478	-0.9699148	-4e+11	0	0	-1.9190505e-08	5.9772263e-09	0
2.0500310481816412e-09	0.00013622793	0.00028597144	-0.9698788	-4e+11	0	0	-1.9298545e-08	5.964493e-09	0
2.060034858504562e-09	0.00013058374	0.00028544338	-0.9698427	-4e+11	0	0	-1.9406295e-08	5.9508554e-09	0
2.0700019285374357e-09	0.00012515699	0.00028485013	-0.96980685	-4e+11	0	0	-1.9512916e-08	5.9362524e-09	0
2.080005768013994e-09	0.00011991033	0.00028419122	-0.9697708	-4e+11	0	0	-1.9618867e-08	5.920708e-09	0
2.090009585352212e-09	0.00011485765	0.00028347597	-0.9697348	-4e+11	0	0	-1.9724679e-08	5.904484e-09	0
2.100013408865578e-09	0.00010999013	0.00028269924	-0.9696989	-4e+11	0	0	-1.9829491e-08	5.8874052e-09	0
2.1100172369869614e-09	0.000105315055	0.00028187502	-0.9696632	-4e+11	0	0	-1.9933136e-08	5.8696212e-09	0
2.120021049170595e-09	0.00010081647	0.00028099306	-0.9696275	-4e+11	0	0	-2.0036316e-08	5.8511276e-09	0
2.1300248751385147e-09	9.6496486e-05	0.00028007664	-0.969592	-4e+11	0	0	-2.0138268e-08	5.832077e-09	0
2.1400286853559643e-09	9.2345006e-05	0.000279109	-0.9695567	-4e+11	0	0	-2.0239693e-08	5.8122978e-09	0
2.1500324905395922e-09	8.8360386e-05	0.0002781013	-0.96952164	-4e+11	0	0	-2.0339913e-08	5.792122e-09	0
2.160036295443473e-09	8.453652e-05	0.00027705822	-0.96948665	-4e+11	0	0	-2.0439193e-08	5.771347e-09	0
2.170003319291233e-09	8.087822e-05	0.0002759844	-0.969452	-4e+11	0	0	-2.0536987e-08	5.750225e-09	0
2.18000711013013e-09	7.735812e-05	0.0002748696	-0.96941745	-4e+11	0	0	-2.0634285e-08	5.728546e-09	0
2.190010926987715e-09	7.398188e-05	0.00027373154	-0.9693831	-4e+11	0	0	-2.0730317e-08	5.7064478e-09	0
2.2000147233394366e-09	7.074342e-05	0.00027255714	-0.969349	-4e+11	0	0	-2.0825539e-08	5.683937e-09	0
2.2100185340111775e-09	6.763806e-05	0.00027136225	-0.9693151	-4e+11	0	0	-2.0919403e-08	5.661026e-09	0
2.2200223092884e-09	6.4666776e-05	0.00027013943	-0.96928144	-4e+11	0	0	-2.1012283e-08	5.637848e-09	0
2.230026085688718e-09	6.18117e-05	0.0002688975	-0.9692481	-4e+11	0	0	-2.1103974e-08	5.6144716e-09	0
2.2400298893921913e-09	5.9082005e-05	0.00026763417	-0.9692149	-4e+11	0	0	-2.1194444e-08	5.5906564e-09	0
2.2500336633171888e-09	5.6461595e-05	0.00026635267	-0.969182	-4e+11	0	0	-2.1283837e-08	5.566769e-09	0
2.2600006684239678e-09	5.3963457e-05	0.00026506	-0.9691495	-4e+11	0	0	-2.1371681e-08	5.5425913e-09	0
2.2700044480726224e-09	5.1558563e-05	0.00026374497	-0.96911705	-4e+11	0	0	-2.145903e-08	5.5180283e-09	0
2.2800082200178628e-09	4.9258822e-05	0.0002624169	-0.9690849	-4e+11	0	0	-2.1544686e-08	5.4933813e-09	0
2.2900119900346696e-09	4.7051566e-05	0.0002610758	-0.969053	-4e+11	0	0	-2.1629821e-08	5.468567e-09	0
2.3000157584006895e-09	4.494145e-05	0.00025972212	-0.9690214	-4e+11	0	0	-2.1713097e-08	5.443596e-09	0
2.3100195224594137e-09	4.291709e-05	0.00025836192	-0.9689899	-4e+11	0	0	-2.1795708e-08	5.4183427e-09	0
2.320023288800129e-09	4.0981384e-05	0.00025699008	-0.9689587	-4e+11	0	0	-2.1876541e-08	5.3929976e-09	0
2.3300270686228932e-09	3.9125363e-05	0.00025560986	-0.96892786	-4e+11	0	0	-2.1956696e-08	5.367569e-09	0
2.3400308244827616e-09	3.7348247e-05	0.00025422033	-0.9688972	-4e+11	0	0	-2.2035445e-08	5.342018e-09	0
2.3500345809331136e-09	3.5651494e-05	0.00025282893	-0.96886677	-4e+11	0	0	-2.2112648e-08	5.3163833e-09	0
2.36000156584221e-09	3.4026274e-05	0.00025143754	-0.9688368	-4e+11	0	0	-2.2188614e-08	5.2907256e-09	0
2.3700053241957517e-09	3.2470132e-05	0.00025002751	-0.96880686	-4e+11	0	0	-2.2263755e-08	5.264843e-09	0
2.3800090743308047e-09	3.097629e-05	0.00024862774	-0.9687773	-4e+11	0	0	-2.233748e-08	5.238972e-09	0
2.390012822160906e-09	2.9551495e-05	0.00024721213	-0.96874785	-4e+11	0	0	-2.241047e-08	5.2130393e-09	0
2.4000165846869776e-09	2.8184473e-05	0.0002458035	-0.9687188	-4e+11	0	0	-2.2481965e-08	5.187065e-09	0
2.4100203423865134e-09	2.687542e-05	0.00024438836	-0.9686899	-4e+11	0	0	-2.2552253e-08	5.160942e-09	0
2.4200240903417678e-09	2.562781e-05	0.00024297135	-0.96866125	-4e+11	0	0	-2.2621284e-08	5.1347504e-09	0
2.4300278176483916e-09	2.4431403e-05	0.000241559	-0.9686329	-4e+11	0	0	-2.2689285e-08	5.108635e-09	0
2.440031571815445e-09	2.3287128e-05	0.00024013687	-0.96860474	-4e+11	0	0	-2.2755746e-08	5.082382e-09	0
2.4500353172874566e-09	2.2194701e-05	0.00023872592	-0.9685769	-4e+11	0	0	-2.2821297e-08	5.0562705e-09	0
2.460002268640961e-09	2.1152217e-05	0.00023731217	-0.9685495	-4e+11	0	0	-2.2885551e-08	5.0301208e-09	0
2.4700059976016037e-09	2.0156323e-05	0.00023590121	-0.9685221	-4e+11	0	0	-2.2948608e-08	5.003906e-09	0
2.4800097305015596e-09	1.919955e-05	0.0002344884	-0.96849483	-4e+11	0	0	-2.3010582e-08	4.9776574e-09	0
2.4900134650228097e-09	1.8292281e-05	0.00023307791	-0.968468	-4e+11	0	0	-2.3071099e-08	4.951645e-09	0
2.5000172092385463e-09	1.7419696e-05	0.00023166649	-0.96844125	-4e+11	0	0	-2.3131005e-08	4.9253503e-09	0
2.5100209405937176e-09	1.6592276e-05	0.00023026206	-0.9684149	-4e+11	0	0	-2.3189262e-08	4.899147e-09	0
2.5200246828674695e-09	1.5798538e-05	0.00022885948	-0.96838874	-4e+11	0	0	-2.3246345e-08	4.8728905e-09	0
2.530028417056598e-09	1.5047716e-05	0.00022745691	-0.9683628	-4e+11	0	0	-2.3302551e-08	4.8467252e-09	0
2.540032149528925e-09	1.4328318e-05	0.00022606645	-0.9683371	-4e+11	0	0	-2.3357247e-08	4.8206026e-09	0
2.5500358824613014e-09	1.3642978e-05	0.00022466667	-0.9683117	-4e+11	0	0	-2.3410827e-08	4.7944337e-09	0
2.560002821930865e-09	1.2995034e-05	0.00022328645	-0.9682865	-4e+11	0	0	-2.3463539e-08	4.768318e-09	0
2.5700065640422115e-09	1.2377928e-05	0.00022189738	-0.9682616	-4e+11	0	0	-2.351497e-08	4.742302e-09	0
2.580010283372816e-09	1.1788313e-05	0.00022051996	-0.9682368	-4e+11	0	0	-2.356546e-08	4.7161715e-09	0
2.5900140126775358e-09	1.1230394e-05	0.00021914113	-0.96821225	-4e+11	0	0	-2.361454e-08	4.6900865e-09	0
2.600017752414496e-09	1.0699134e-05	0.00021777209	-0.968188	-4e+11	0	0	-2.3662796e-08	4.664108e-09	0
2.6100214720254743e-09	1.0199137e-05	0.00021640444	-0.96816385	-4e+11	0	0	-2.3709648e-08	4.6381263e-09	0
2.6200252047095415e-09	9.724095e-06	0.00021504331	-0.96814007	-4e+11	0	0	-2.3755653e-08	4.6121595e-09	0
2.630028922050385e-09	9.27294e-06	0.00021368265	-0.9681163	-4e+11	0	0	-2.3800286e-08	4.5861626e-09	0
2.640032647118354e-09	8.854069e-06	0.00021233317	-0.9680929	-4e+11	0	0	-2.3844017e-08	4.5601998e-09	0
2.650036365937603e-09	8.451769e-06	0.000210986	-0.96806973	-4e+11	0	0	-2.3886589e-08	4.5344124e-09	0
2.660003319956855e-09	8.080045e-06	0.00020965002	-0.9680468	-4e+11	0	0	-2.3927933e-08	4.5087623e-09	0
2.6700070406240726e-09	7.724263e-06	0.00020831544	-0.9680241	-4e+11	0	0	-2.39683e-08	4.4829904e-09	0
2.6800107620236885e-09	7.396544e-06	0.00020698225	-0.96800154	-4e+11	0	0	-2.40076e-08	4.4573785e-09	0
2.690014487382696e-09	7.0855967e-06	0.00020565884	-0.9679792	-4e+11	0	0	-2.4045837e-08	4.4318123e-09	0
2.7000182080048177e-09	6.798371e-06	0.00020433683	-0.967957	-4e+11	0	0	-2.4082931e-08	4.406315e-09	0
2.710021933200236e-09	6.5325603e-06	0.00020302646	-0.9679352	-4e+11	0	0	-2.411901e-08	4.380787e-09	0
2.7200256550024492e-09	6.282882e-06	0.00020171702	-0.9679135	-4e+11	0	0	-2.4154366e-08	4.3552895e-09	0
2.730029367258889e-09	6.055182e-06	0.00020041643	-0.96789193	-4e+11	0	0	-2.4188285e-08	4.3299333e-09	0
2.7400330795188127e-09	5.844896e-06	0.00019912049	-0.9678708	-4e+11	0	0	-2.4221322e-08	4.3045425e-09	0
2.750000024854989e-09	5.655481e-06	0.00019783247	-0.96784985	-4e+11	0	0	-2.4253197e-08	4.2793467e-09	0
2.760003740427345e-09	5.48106e-06	0.00019655097	-0.9678288	-4e+11	0	0	-2.428402e-08	4.2541735e-09	0
2.77000744807353e-09	5.325094e-06	0.0001952704	-0.96780825	-4e+11	0	0	-2.4313934e-08	4.2289465e-09	0
2.780011164677268e-09	5.1870593e-06	0.00019400101	-0.9677878	-4e+11	0	0	-2.4343246e-08	4.2038346e-09	0
2.790014886841149e-09	5.0634126e-06	0.00019273441	-0.9677675	-4e+11	0	0	-2.437094e-08	4.178772e-09	0
2.8000186158954492e-09	4.957579e-06	0.00019147573	-0.9677474	-4e+11	0	0	-2.4397782e-08	4.1537933e-09	0
2.810022327560806e-09	4.865342e-06	0.00019022077	-0.9677274	-4e+11	0	0	-2.4423858e-08	4.1289177e-09	0
2.820026038906478e-09	4.7940957e-06	0.0001889742	-0.9677079	-4e+11	0	0	-2.4448708e-08	4.104057e-09	0
2.830029755817518e-09	4.7292824e-06	0.000187736	-0.9676883	-4e+11	0	0	-2.447258e-08	4.0792543e-09	0
2.8400334693999774e-09	4.688405e-06	0.00018649874	-0.967669	-4e+11	0	0	-2.449572e-08	4.054489e-09	0
2.850000406827299e-09	4.6528194e-06	0.00018527173	-0.96765	-4e+11	0	0	-2.451741e-08	4.0298613e-09	0
2.8600041196350556e-09	4.640222e-06	0.00018405076	-0.9676311	-4e+11	0	0	-2.4538497e-08	4.0053254e-09	0
2.8700078286663695e-09	4.6366113e-06	0.00018283259	-0.9676124	-4e+11	0	0	-2.455857e-08	3.980751e-09	0
2.8800115325933877e-09	4.6507985e-06	0.00018162467	-0.9675938	-4e+11	0	0	-2.4577888e-08	3.9563064e-09	0
2.890015248319507e-09	4.6709542e-06	0.00018042047	-0.9675755	-4e+11	0	0	-2.4596e-08	3.931965e-09	0