# t (s)	mx ()	my ()	mz ()	E_total (J)	E_Zeeman (J)	a1 (rad)	a2 (rad)	a3 (rad)	a4 (rad)	a5 (rad)	m.region1x ()	m.region1y ()	m.region1z ()	m.region2x ()	m.region2y ()	m.region2z ()	m.region3x ()	m.region3y ()	m.region3z ()	m.region4x ()	m.region4y ()	m.region4z ()	m.region5x ()	m.region5y ()	m.region5z ()	roundness ()	size (m)	Cell_size (m)
0	0.7798169	0.22134545	0	-2.2066203e-17	-2.603769e-17	0	0	1.5707964	0	0	0.9827024	-0.13290517	0	0.967487	0.21933734	0	-0.00058804604	0.99960417	0	0.9766418	-0.17384908	0	0.9728412	0.19454005	0	0.66	100	1e-09
0	0.60923743	0.3596498	0	-2.2090153e-17	-2.6037702e-17	0	0	1.5707964	0	1.5707964	0.9812216	-0.14352027	0	0.98206574	0.13768697	0	-0.00036383045	0.9996047	0	0.9753066	-0.18131867	0	0.10795719	0.98579633	0	0.66	100	1e-09
0	0.39603573	0.17451501	0	-2.1985852e-17	-2.6037708e-17	0	0	1.5707964	0	3.1415927	0.9812227	-0.14319268	0	0.9907733	-0.024521539	0	-0.00030067508	0.99960494	0	0.97597945	-0.17750594	0	-0.9674962	0.21819024	0	0.66	100	1e-09
0	0.61923194	-0.042907827	0	-2.1945705e-17	-2.6037695e-17	0	0	1.5707964	0	4.712389	0.9833764	-0.12734032	0	0.9892958	0.061233163	0	-0.00062306883	0.9996044	0	0.9776865	-0.1676824	0	0.14642401	-0.98035395	0	0.66	100	1e-09
0	0.605631	0.48760045	0	-2.1967748e-17	-2.6037694e-17	0	0	1.5707964	1.5707964	0	0.98985773	0.049053118	0	0.96828777	0.21541587	0	-0.00080041995	0.99960434	0	0.09662778	0.98643994	0	0.9741823	0.18748881	0	0.66	100	1e-09
0	0.4321488	0.6288318	0	-2.1992148e-17	-2.6037703e-17	0	0	1.5707964	1.5707964	1.5707964	0.9902429	0.039936714	0	0.9829244	0.130822	0	-0.00057466875	0.99960476	0	0.087784424	0.98722523	0	0.10036687	0.98657	0	0.66	100	1e-09
0	0.21605815	0.4407728	0	-2.189447e-17	-2.6037713e-17	0	0	1.5707964	1.5707964	3.1415927	0.98978275	0.049763065	0	0.99033445	-0.037961062	0	-0.00051561015	0.9996051	0	0.07120048	0.9885403	0	-0.9705113	0.20391633	0	0.66	100	1e-09
0	0.43836105	0.22352976	0	-2.1854155e-17	-2.6037702e-17	0	0	1.5707964	1.5707964	4.712389	0.9889587	0.06471816	0	0.9899643	0.048171937	0	-0.0008345887	0.9996045	0	0.0829249	0.98767674	0	0.13079183	-0.98252267	0	0.66	100	1e-09
0	0.38873765	0.27523118	0	-2.200841e-17	-2.6037694e-17	0	0	1.5707964	3.1415927	0	0.983853	0.12114678	0	0.9643784	0.23269464	0	-0.00074863207	0.9996044	0	-0.9760864	-0.17450854	0	0.9722918	0.19721864	0	0.66	100	1e-09
0	0.21615942	0.41254386	0	-2.2038315e-17	-2.6037707e-17	0	0	1.5707964	3.1415927	1.5707964	0.9849833	0.11118873	0	0.98106	0.14447497	0	-0.000522257	0.99960494	0	-0.9751153	-0.18005516	0	0.09039136	0.9875059	0	0.66	100	1e-09
0	0.0056181275	0.22745608	0	-2.1942638e-17	-2.6037717e-17	0	0	1.5707964	3.1415927	3.1415927	0.98388904	0.120601386	0	0.99078107	-0.022488058	0	-0.00046623294	0.99960524	0	-0.9768227	-0.17029324	0	-0.9692906	0.20985505	0	0.66	100	1e-09
0	0.22212762	0.010508417	0	-2.1894832e-17	-2.6037702e-17	0	0	1.5707964	3.1415927	4.712389	0.98195666	0.13597737	0	0.9890885	0.06379103	0	-0.00078514754	0.9996047	0	-0.9780524	-0.16281499	0	0.11843036	-0.984016	0	0.66	100	1e-09
0	0.6018709	0.07771921	0	-2.2092318e-17	-2.603769e-17	0	0	1.5707964	4.712389	0	0.98993737	-0.055441648	0	0.9647746	0.2312162	0	-0.00056474976	0.99960417	0	0.08371701	-0.98806745	0	0.97149014	0.20128487	0	0.66	100	1e-09
0	0.42924455	0.21612264	0	-2.2120466e-17	-2.6037702e-17	0	0	1.5707964	4.712389	1.5707964	0.98943925	-0.06367998	0	0.980785	0.14670573	0	-0.0003424806	0.9996047	0	0.07645836	-0.98863924	0	0.0998826	0.98662204	0	0.66	100	1e-09
0	0.21601741	0.031644024	0	-2.2018244e-17	-2.6037712e-17	0	0	1.5707964	4.712389	3.1415927	0.98962	-0.060038734	0	0.9909575	-0.0142845055	0	-0.0002825137	0.999605	0	0.06639306	-0.9893404	0	-0.966601	0.22227877	0	0.66	100	1e-09
0	0.4381648	-0.18935351	0	-2.1972205e-17	-2.6037699e-17	0	0	1.5707964	4.712389	4.712389	0.9902929	-0.047599424	0	0.9886013	0.0716439	0	-0.0006013593	0.9996044	0	0.07651494	-0.98862916	0	0.13601631	-0.9817872	0	0.66	100	1e-09
0	0.63665164	0.33592287	0	-2.2053229e-17	-2.6037634e-17	0	1.5707964	1.5707964	0	0	0.9668051	-0.22400577	0	0.2555867	0.95927376	0	-0.00032370817	0.99960214	0	0.976595	-0.17401049	0	0.9845947	0.118754424	0	0.66	100	1e-09
0	0.50284725	0.49450386	0	-2.2032406e-17	-2.6037647e-17	0	1.5707964	1.5707964	0	1.5707964	0.96411985	-0.23555782	0	0.3783145	0.9196596	0	-0.00018548677	0.9996025	0	0.97488815	-0.18351409	0	0.19709936	0.972329	0	0.66	100	1e-09
0	0.23214307	0.33741447	0	-2.1904315e-17	-2.6037642e-17	0	1.5707964	1.5707964	0	3.1415927	0.95423466	-0.27417436	0	0.20730656	0.9699827	0	-3.3510445e-05	0.9996023	0	0.97549736	-0.18006119	0	-0.9762897	0.17172277	0	0.66	100	1e-09
0	0.45129728	0.1208421	0	-2.1942152e-17	-2.6037629e-17	0	1.5707964	1.5707964	0	4.712389	0.96058196	-0.25026658	0	0.086002536	0.9873918	0	-0.0002572887	0.99960184	0	0.97755915	-0.16830719	0	0.23259991	-0.9642094	0	0.66	100	1e-09
0	0.4557735	0.60756874	0	-2.196103e-17	-2.6037639e-17	0	1.5707964	1.5707964	1.5707964	0	0.99057335	-0.02510762	0	0.22707583	0.96609926	0	-0.00052453653	0.9996023	0	0.07606506	0.9881751	0	0.9856778	0.109074585	0	0.66	100	1e-09
0	0.31800485	0.771134	0	-2.193862e-17	-2.6037652e-17	0	1.5707964	1.5707964	1.5707964	1.5707964	0.9900784	-0.040032	0	0.33960074	0.9339541	0	-0.00037875492	0.99960274	0	0.06995628	0.9885881	0	0.19076756	0.9735567	0	0.66	100	1e-09
0	0.04560023	0.61114454	0	-2.1818435e-17	-2.6037647e-17	0	1.5707964	1.5707964	1.5707964	3.1415927	0.98891234	-0.061148696	0	0.1698261	0.9769597	0	-0.00023543215	0.9996025	0	0.04921609	0.98981243	0	-0.979718	0.15049686	0	0.66	100	1e-09
0	0.26400045	0.39565578	0	-2.1857566e-17	-2.6037634e-17	0	1.5707964	1.5707964	1.5707964	4.712389	0.99027556	-0.03248529	0	0.054775927	0.9895313	0	-0.00045931336	0.99960214	0	0.05839855	0.98936284	0	0.21701166	-0.96773213	0	0.66	100	1e-09
0	0.24281327	0.39646122	0	-2.2008285e-17	-2.6037646e-17	0	1.5707964	1.5707964	3.1415927	0	0.988674	0.067664355	0	0.21806814	0.9681021	0	-0.00047385623	0.9996024	0	-0.9772542	-0.16766384	0	0.9850522	0.11460116	0	0.66	100	1e-09
0	0.10333228	0.5574171	0	-2.1991124e-17	-2.6037652e-17	0	1.5707964	1.5707964	3.1415927	1.5707964	0.98969406	0.04945528	0	0.32522875	0.93886304	0	-0.00032143475	0.99960274	0	-0.9756967	-0.17678268	0	0.1777567	0.97594714	0	0.66	100	1e-09
0	-0.16107647	0.40038154	0	-2.187479e-17	-2.603765e-17	0	1.5707964	1.5707964	3.1415927	3.1415927	0.9901605	0.035935827	0	0.16116631	0.9783692	0	-0.00018582148	0.9996026	0	-0.97742796	-0.16667609	0	-0.9790955	0.1546762	0	0.66	100	1e-09
0	0.05164385	0.18559806	0	-2.1906307e-17	-2.6037637e-17	0	1.5707964	1.5707964	3.1415927	4.712389	0.9887475	0.06552384	0	0.04655807	0.98992985	0	-0.00041088136	0.99960214	0	-0.9790882	-0.15629984	0	0.20241262	-0.9707656	0	0.66	100	1e-09
0	0.45698383	0.1941985	0	-2.2083929e-17	-2.6037637e-17	0	1.5707964	1.5707964	4.712389	0	0.98410684	-0.12332546	0	0.24906102	0.9609215	0	-0.00030420622	0.99960214	0	0.06798368	-0.9892378	0	0.9840715	0.12303219	0	0.66	100	1e-09
0	0.31963173	0.35485774	0	-2.2067033e-17	-2.6037647e-17	0	1.5707964	1.5707964	4.712389	1.5707964	0.9826512	-0.13469356	0	0.36544237	0.924637	0	-0.00016258395	0.9996026	0	0.063320376	-0.9895402	0	0.18690735	0.9742826	0	0.66	100	1e-09
0	0.05059872	0.19932894	0	-2.194236e-17	-2.6037642e-17	0	1.5707964	1.5707964	4.712389	3.1415927	0.9792859	-0.15781178	0	0.20049424	0.9713475	0	-2.0649055e-05	0.99960244	0	0.049171608	-0.99031615	0	-0.97593755	0.17382266	0	0.66	100	1e-09
0	0.2683051	-0.02130553	0	-2.1974177e-17	-2.6037629e-17	0	1.5707964	1.5707964	4.712389	4.712389	0.98229235	-0.13729812	0	0.08042671	0.9878295	0	-0.0002419588	0.9996019	0	0.057981692	-0.98985094	0	0.22106658	-0.96681	0	0.66	100	1e-09
0	0.6365011	0.3355038	0	-2.2053232e-17	-2.6037634e-17	0	3.1415927	1.5707964	0	0	0.96651936	-0.22527732	0	0.2552683	0.95935583	0	-0.00032293514	0.99960214	0	0.9764426	-0.17488933	0	0.98459786	0.11872754	0	0.66	100	1e-09
0	0.5028566	0.49450043	0	-2.2032409e-17	-2.6037647e-17	0	3.1415927	1.5707964	0	1.5707964	0.96412045	-0.23555528	0	0.37834838	0.91964626	0	-0.00018550908	0.9996026	0	0.9748873	-0.1835178	0	0.19711216	0.97232646	0	0.66	100	1e-09
0	0.23212713	0.33736658	0	-2.1904315e-17	-2.6037642e-17	0	3.1415927	1.5707964	0	3.1415927	0.9542315	-0.274186	0	0.20727001	0.96998996	0	-3.3509306e-05	0.9996023	0	0.97549766	-0.18005954	0	-0.97633004	0.17148624	0	0.66	100	1e-09
0	0.45133638	0.1208547	0	-2.1942155e-17	-2.6037629e-17	0	3.1415927	1.5707964	0	4.712389	0.9605873	-0.25024527	0	0.08602603	0.9873899	0	-0.0002573279	0.99960184	0	0.97756	-0.1683022	0	0.23276608	-0.9641708	0	0.66	100	1e-09
0	0.45577034	0.6075565	0	-2.1961027e-17	-2.6037642e-17	0	3.1415927	1.5707964	1.5707964	0	0.9905721	-0.02515616	0	0.22705086	0.96610487	0	-0.0005245024	0.9996023	0	0.07607354	0.9881743	0	0.9856797	0.10905728	0	0.66	100	1e-09
0	0.31799832	0.77113545	0	-2.1938623e-17	-2.603765e-17	0	3.1415927	1.5707964	1.5707964	1.5707964	0.99007833	-0.040033355	0	0.33958405	0.93395996	0	-0.00037874194	0.9996027	0	0.06995572	0.9885882	0	0.19075222	0.9735596	0	0.66	100	1e-09
0	0.04560207	0.61114097	0	-2.1818435e-17	-2.6037647e-17	0	3.1415927	1.5707964	1.5707964	3.1415927	0.98891246	-0.061146695	0	0.16983572	0.97695804	0	-0.00023544139	0.9996026	0	0.04921824	0.9898124	0	-0.97972065	0.1504786	0	0.66	100	1e-09
0	0.26395398	0.39563742	0	-2.1857563e-17	-2.6037637e-17	0	3.1415927	1.5707964	1.5707964	4.712389	0.99027395	-0.032534994	0	0.054728646	0.9895337	0	-0.00045924127	0.9996021	0	0.05841593	0.9893619	0	0.21681075	-0.9677755	0	0.66	100	1e-09
0	0.24282284	0.39648107	0	-2.2008285e-17	-2.6037642e-17	0	3.1415927	1.5707964	3.1415927	0	0.98866844	0.067747176	0	0.21812499	0.9680897	0	-0.0004739251	0.9996024	0	-0.9772546	-0.16766146	0	0.98504925	0.11462774	0	0.66	100	1e-09
0	0.103330754	0.5574171	0	-2.1991123e-17	-2.6037652e-17	0	3.1415927	1.5707964	3.1415927	1.5707964	0.98969406	0.04945574	0	0.3252293	0.9388629	0	-0.000321434	0.99960274	0	-0.9756963	-0.17678478	0	0.17774825	0.97594863	0	0.66	100	1e-09
0	-0.16107756	0.40038228	0	-2.187479e-17	-2.6037647e-17	0	3.1415927	1.5707964	3.1415927	3.1415927	0.99016047	0.035936512	0	0.16116041	0.9783702	0	-0.00018581748	0.9996026	0	-0.9774278	-0.16667652	0	-0.9790951	0.1546788	0	0.66	100	1e-09
0	0.051627677	0.18558978	0	-2.1906305e-17	-2.6037637e-17	0	3.1415927	1.5707964	3.1415927	4.712389	0.98874855	0.06550856	0	0.046560597	0.9899297	0	-0.00041086835	0.9996021	0	-0.9790868	-0.15630865	0	0.20232686	-0.9707829	0	0.66	100	1e-09
0	0.4569764	0.19419855	0	-2.208393e-17	-2.6037639e-17	0	3.1415927	1.5707964	4.712389	0	0.9841088	-0.123309575	0	0.24903792	0.9609273	0	-0.00030420139	0.9996022	0	0.067965545	-0.989239	0	0.98407394	0.1230119	0	0.66	100	1e-09
0	0.31961608	0.3548616	0	-2.2067035e-17	-2.603765e-17	0	3.1415927	1.5707964	4.712389	1.5707964	0.982651	-0.13469386	0	0.3654144	0.9246476	0	-0.00016255998	0.9996026	0	0.0633185	-0.98954034	0	0.18685898	0.9742917	0	0.66	100	1e-09
0	0.050595723	0.19933066	0	-2.194236e-17	-2.6037642e-17	0	3.1415927	1.5707964	4.712389	3.1415927	0.9792853	-0.15781543	0	0.20047839	0.9713507	0	-2.0636307e-05	0.9996024	0	0.049171466	-0.99031615	0	-0.97593594	0.17383176	0	0.66	100	1e-09
0	0.268311	-0.021304453	0	-2.1974177e-17	-2.6037632e-17	0	3.1415927	1.5707964	4.712389	4.712389	0.9822926	-0.13729668	0	0.08043506	0.9878288	0	-0.00024196702	0.9996019	0	0.057982124	-0.98985094	0	0.22108722	-0.9668054	0	0.66	100	1e-09
0	0.7797961	0.22119847	0	-2.2066203e-17	-2.603769e-17	0	4.712389	1.5707964	0	0	0.98270863	-0.1328564	0	0.96757805	0.21892501	0	-0.00058788556	0.99960417	0	0.97651285	-0.17459425	0	0.97276866	0.19491379	0	0.66	100	1e-09
0	0.6091913	0.35964924	0	-2.2090151e-17	-2.6037699e-17	0	4.712389	1.5707964	0	1.5707964	0.9812163	-0.14355753	0	0.98206604	0.13768534	0	-0.00036378656	0.99960464	0	0.97530866	-0.18130676	0	0.10772919	0.9858206	0	0.66	100	1e-09
0	0.39603794	0.17452581	0	-2.1985849e-17	-2.6037708e-17	0	4.712389	1.5707964	0	3.1415927	0.981223	-0.14319089	0	0.99077344	-0.024518318	0	-0.00030067138	0.99960494	0	0.9759794	-0.17750572	0	-0.9674856	0.21823904	0	0.66	100	1e-09
0	0.61922604	-0.042911332	0	-2.1945705e-17	-2.6037695e-17	0	4.712389	1.5707964	0	4.712389	0.98337656	-0.12733933	0	0.98929656	0.06121966	0	-0.00062306307	0.9996044	0	0.9776864	-0.16768299	0	0.1463935	-0.98035836	0	0.66	100	1e-09
0	0.6056323	0.48761	0	-2.1967748e-17	-2.6037695e-17	0	4.712389	1.5707964	1.5707964	0	0.9898574	0.049059797	0	0.9682861	0.2154237	0	-0.0008004175	0.99960434	0	0.09664285	0.9864385	0	0.9741757	0.18752389	0	0.66	100	1e-09
0	0.43214217	0.6288375	0	-2.1992147e-17	-2.6037703e-17	0	4.712389	1.5707964	1.5707964	1.5707964	0.9902427	0.039940935	0	0.9829216	0.13084358	0	-0.0005746713	0.99960476	0	0.08778225	0.98722553	0	0.10033879	0.98657286	0	0.66	100	1e-09
0	0.21605693	0.44077855	0	-2.1894467e-17	-2.6037713e-17	0	4.712389	1.5707964	1.5707964	3.1415927	0.98978275	0.04976387	0	0.99033505	-0.0379445	0	-0.00051561487	0.9996051	0	0.07119166	0.988541	0	-0.97050905	0.20392723	0	0.66	100	1e-09
0	0.43835565	0.22352736	0	-2.1854155e-17	-2.6037699e-17	0	4.712389	1.5707964	1.5707964	4.712389	0.9889587	0.0647214	0	0.9899647	0.04815963	0	-0.0008345847	0.99960464	0	0.0829224	0.9876768	0	0.13076712	-0.9825258	0	0.66	100	1e-09
0	0.38873762	0.2752253	0	-2.2008412e-17	-2.6037695e-17	0	4.712389	1.5707964	3.1415927	0	0.9838571	0.121113524	0	0.96437	0.23272991	0	-0.0007486031	0.9996044	0	-0.97607064	-0.1745995	0	0.9722801	0.19727817	0	0.66	100	1e-09
0	0.21615691	0.41254452	0	-2.2038315e-17	-2.6037703e-17	0	4.712389	1.5707964	3.1415927	1.5707964	0.984983	0.11119146	0	0.9810591	0.14448126	0	-0.00052225695	0.9996048	0	-0.975114	-0.18006201	0	0.09037875	0.98750705	0	0.66	100	1e-09
0	0.0056377365	0.22759426	0	-2.1942638e-17	-2.6037717e-17	0	4.712389	1.5707964	3.1415927	3.1415927	0.98388463	0.12063912	0	0.9907832	-0.022399204	0	-0.00046622343	0.9996051	0	-0.97683054	-0.17024699	0	-0.96918243	0.21037316	0	0.66	100	1e-09
0	0.22213502	0.010511935	0	-2.1894832e-17	-2.6037699e-17	0	4.712389	1.5707964	3.1415927	4.712389	0.9819572	0.13597368	0	0.9890874	0.0638093	0	-0.00078515406	0.99960464	0	-0.9780521	-0.16281638	0	0.118467815	-0.98401165	0	0.66	100	1e-09
0	0.6018704	0.0777141	0	-2.2092315e-17	-2.6037694e-17	0	4.712389	1.5707964	4.712389	0	0.98993796	-0.055430762	0	0.96477777	0.2312027	0	-0.0005647564	0.99960417	0	0.08370668	-0.9880684	0	0.9714945	0.20126273	0	0.66	100	1e-09
0	0.4292374	0.21612191	0	-2.2120466e-17	-2.6037703e-17	0	4.712389	1.5707964	4.712389	1.5707964	0.98943865	-0.06368916	0	0.9807848	0.14670758	0	-0.0003424724	0.9996047	0	0.07646008	-0.98863906	0	0.099845864	0.98662555	0	0.66	100	1e-09
0	0.2160282	0.03170277	0	-2.2018246e-17	-2.6037708e-17	0	4.712389	1.5707964	4.712389	3.1415927	0.98962027	-0.060034506	0	0.990958	-0.01425505	0	-0.00028249586	0.999605	0	0.06638848	-0.9893407	0	-0.96654326	0.22253911	0	0.66	100	1e-09
0	0.43815985	-0.18935604	0	-2.1972203e-17	-2.6037695e-17	0	4.712389	1.5707964	4.712389	4.712389	0.99029285	-0.04759805	0	0.9886021	0.071633235	0	-0.0006013549	0.9996044	0	0.076514184	-0.98862916	0	0.13599145	-0.9817906	0	0.66	100	1e-09
0	0.77979976	0.22155054	0	-2.20662e-17	-2.6037689e-17	1.5707964	0	1.5707964	0	0	0.9827647	-0.13243516	0	0.96750855	0.21923801	0	-0.00058808335	0.99960417	0	0.97662175	-0.17396508	0	0.9726915	0.19531064	0	0.66	100	1e-09
0	0.6092386	0.35964876	0	-2.2090151e-17	-2.6037702e-17	1.5707964	0	1.5707964	0	1.5707964	0.98122215	-0.14351667	0	0.9820665	0.13768032	0	-0.00036383115	0.9996047	0	0.97530615	-0.18132035	0	0.10796193	0.9857959	0	0.66	100	1e-09
0	0.39601576	0.17441465	0	-2.1985849e-17	-2.6037708e-17	1.5707964	0	1.5707964	0	3.1415927	0.9812209	-0.14320518	0	0.9907721	-0.024564818	0	-0.0003007057	0.999605	0	0.9759794	-0.17750624	0	-0.9675927	0.2177445	0	0.66	100	1e-09
0	0.6192399	-0.042903535	0	-2.1945702e-17	-2.6037695e-17	1.5707964	0	1.5707964	0	4.712389	0.9833761	-0.12734234	0	0.98929477	0.061250743	0	-0.00062307605	0.9996044	0	0.97768646	-0.16768248	0	0.14646518	-0.98034793	0	0.66	100	1e-09
0	0.60563105	0.4876036	0	-2.1967752e-17	-2.6037694e-17	1.5707964	0	1.5707964	1.5707964	0	0.98985744	0.049058694	0	0.9682871	0.2154187	0	-0.00080042135	0.9996044	0	0.09663027	0.9864397	0	0.97418076	0.18749666	0	0.66	100	1e-09
0	0.43214688	0.62882936	0	-2.199215e-17	-2.6037707e-17	1.5707964	0	1.5707964	1.5707964	1.5707964	0.9902433	0.039925747	0	0.9829247	0.13081986	0	-0.000574661	0.9996048	0	0.08779257	0.9872245	0	0.100348346	0.9865718	0	0.66	100	1e-09
0	0.21605861	0.44077238	0	-2.189447e-17	-2.6037717e-17	1.5707964	0	1.5707964	1.5707964	3.1415927	0.9897828	0.04976	0	0.9903346	-0.03795822	0	-0.00051561004	0.9996053	0	0.07120274	0.98854023	0	-0.9705116	0.20391484	0	0.66	100	1e-09
0	0.43835455	0.22352892	0	-2.1854155e-17	-2.6037699e-17	1.5707964	0	1.5707964	1.5707964	4.712389	0.9889581	0.06472844	0	0.98996484	0.048160046	0	-0.000834588	0.9996045	0	0.08291731	0.9876773	0	0.13076726	-0.9825258	0	0.66	100	1e-09
0	0.38873535	0.2752374	0	-2.200841e-17	-2.6037695e-17	1.5707964	0	1.5707964	3.1415927	0	0.98385525	0.12112798	0	0.96436566	0.23274833	0	-0.0007486111	0.9996044	0	-0.97607344	-0.17458357	0	0.97227776	0.19729006	0	0.66	100	1e-09
0	0.21616225	0.4125427	0	-2.2038315e-17	-2.6037708e-17	1.5707964	0	1.5707964	3.1415927	1.5707964	0.9849822	0.11119883	0	0.9810599	0.14447537	0	-0.00052226137	0.9996048	0	-0.97511256	-0.18007033	0	0.09040385	0.9875049	0	0.66	100	1e-09
0	0.0056384583	0.22758257	0	-2.1942638e-17	-2.6037717e-17	1.5707964	0	1.5707964	3.1415927	3.1415927	0.9838819	0.12066224	0	0.9907808	-0.022512816	0	-0.0004661937	0.99960524	0	-0.9768296	-0.17025276	0	-0.9691746	0.210411	0	0.66	100	1e-09
0	0.2221202	0.01050353	0	-2.1894832e-17	-2.6037699e-17	1.5707964	0	1.5707964	3.1415927	4.712389	0.98195636	0.13597922	0	0.9890898	0.06377048	0	-0.0007851397	0.9996047	0	-0.97805226	-0.16281621	0	0.11839201	-0.9840204	0	0.66	100	1e-09
0	0.60186887	0.0777104	0	-2.2092315e-17	-2.6037689e-17	1.5707964	0	1.5707964	4.712389	0	0.9899379	-0.055432893	0	0.9647772	0.23120536	0	-0.000564759	0.9996042	0	0.083695985	-0.9880693	0	0.97149825	0.20124455	0	0.66	100	1e-09
0	0.4292416	0.21612401	0	-2.2120462e-17	-2.6037702e-17	1.5707964	0	1.5707964	4.712389	1.5707964	0.9894392	-0.063680865	0	0.98078406	0.14671211	0	-0.00034247982	0.99960464	0	0.0764583	-0.98863924	0	0.099868834	0.98662335	0	0.66	100	1e-09
0	0.21601702	0.03164253	0	-2.2018244e-17	-2.6037708e-17	1.5707964	0	1.5707964	4.712389	3.1415927	0.98962	-0.06003976	0	0.9909575	-0.014281612	0	-0.00028251504	0.999605	0	0.06639316	-0.9893404	0	-0.96660304	0.22226942	0	0.66	100	1e-09
0	0.4381654	-0.18935291	0	-2.1972202e-17	-2.6037699e-17	1.5707964	0	1.5707964	4.712389	4.712389	0.99029285	-0.047599304	0	0.98860127	0.07164627	0	-0.00060136005	0.9996045	0	0.07651481	-0.9886291	0	0.13601954	-0.98178685	0	0.66	100	1e-09
0	0.6366561	0.3359143	0	-2.2053232e-17	-2.6037637e-17	1.5707964	1.5707964	1.5707964	0	0	0.96679914	-0.22403304	0	0.2556234	0.95926446	0	-0.000323715	0.99960214	0	0.97658974	-0.17404065	0	0.984592	0.11877877	0	0.66	100	1e-09
0	0.50285023	0.494503	0	-2.2032406e-17	-2.603765e-17	1.5707964	1.5707964	1.5707964	0	1.5707964	0.96412003	-0.23555732	0	0.37832266	0.91965634	0	-0.00018549277	0.9996026	0	0.974888	-0.18351448	0	0.19710599	0.97232777	0	0.66	100	1e-09
0	0.23212679	0.33737236	0	-2.1904315e-17	-2.6037642e-17	1.5707964	1.5707964	1.5707964	0	3.1415927	0.95422935	-0.27419394	0	0.20726462	0.9699911	0	-3.3498753e-05	0.9996024	0	0.9754978	-0.18005939	0	-0.9763241	0.1715216	0	0.66	100	1e-09
0	0.45132676	0.12085169	0	-2.1942152e-17	-2.6037629e-17	1.5707964	1.5707964	1.5707964	0	4.712389	0.9605859	-0.2502506	0	0.08601894	0.9873905	0	-0.00025731744	0.9996018	0	0.97755975	-0.16830324	0	0.23272634	-0.96418	0	0.66	100	1e-09
0	0.45576128	0.60750085	0	-2.1961027e-17	-2.6037639e-17	1.5707964	1.5707964	1.5707964	1.5707964	0	0.99056685	-0.025380898	0	0.22694504	0.96612895	0	-0.00052434916	0.9996023	0	0.07613126	0.98816997	0	0.98568755	0.108984195	0	0.66	100	1e-09
0	0.31797853	0.77113897	0	-2.193862e-17	-2.603765e-17	1.5707964	1.5707964	1.5707964	1.5707964	1.5707964	0.990078	-0.040044453	0	0.33951443	0.9339843	0	-0.0003786926	0.9996027	0	0.06994833	0.98858875	0	0.19073066	0.97356373	0	0.66	100	1e-09
0	0.045592584	0.6111423	0	-2.1818437e-17	-2.6037647e-17	1.5707964	1.5707964	1.5707964	1.5707964	3.1415927	0.988912	-0.061153945	0	0.16979343	0.9769651	0	-0.0002354098	0.9996025	0	0.049212594	0.9898126	0	-0.97971976	0.150485	0	0.66	100	1e-09
0	0.2639164	0.39562473	0	-2.1857568e-17	-2.6037634e-17	1.5707964	1.5707964	1.5707964	1.5707964	4.712389	0.99027336	-0.032552868	0	0.05475916	0.98953193	0	-0.000459238	0.9996021	0	0.05840492	0.9893625	0	0.21660401	-0.96782005	0	0.66	100	1e-09
0	0.24281351	0.39646035	0	-2.2008283e-17	-2.6037642e-17	1.5707964	1.5707964	1.5707964	3.1415927	0	0.9886741	0.06766252	0	0.21806881	0.968102	0	-0.00047385547	0.9996024	0	-0.97725385	-0.1676668	0	0.98505217	0.11460182	0	0.66	100	1e-09
0	0.10328973	0.55743194	0	-2.1991123e-17	-2.6037652e-17	1.5707964	1.5707964	1.5707964	3.1415927	1.5707964	0.989694	0.04945663	0	0.32510942	0.9389026	0	-0.00032135105	0.99960274	0	-0.9756998	-0.1767654	0	0.17766628	0.975963	0	0.66	100	1e-09
0	-0.16107516	0.40038875	0	-2.187479e-17	-2.603765e-17	1.5707964	1.5707964	1.5707964	3.1415927	3.1415927	0.9901605	0.035935335	0	0.16116725	0.97836906	0	-0.00018581771	0.9996026	0	-0.9774278	-0.16667621	0	-0.97908986	0.15471287	0	0.66	100	1e-09
0	0.051731635	0.18563873	0	-2.1906305e-17	-2.6037637e-17	1.5707964	1.5707964	1.5707964	3.1415927	4.712389	0.9887428	0.065598756	0	0.046581794	0.98992896	0	-0.00041097243	0.9996021	0	-0.97909486	-0.15625647	0	0.20283939	-0.9706798	0	0.66	100	1e-09
0	0.4569832	0.19419675	0	-2.2083929e-17	-2.6037637e-17	1.5707964	1.5707964	1.5707964	4.712389	0	0.9841062	-0.12333184	0	0.24906352	0.9609209	0	-0.00030420578	0.99960214	0	0.06797897	-0.98923814	0	0.9840718	0.12303051	0	0.66	100	1e-09
0	0.31961104	0.3548627	0	-2.2067033e-17	-2.6037647e-17	1.5707964	1.5707964	1.5707964	4.712389	1.5707964	0.9826503	-0.13470003	0	0.36537552	0.92466235	0	-0.00016253696	0.9996026	0	0.063317716	-0.98954034	0	0.18687424	0.9742887	0	0.66	100	1e-09
0	0.050600976	0.19933262	0	-2.194236e-17	-2.6037642e-17	1.5707964	1.5707964	1.5707964	4.712389	3.1415927	0.9792861	-0.15781045	0	0.20050253	0.97134596	0	-2.0652875e-05	0.9996024	0	0.049171146	-0.99031615	0	-0.9759343	0.17384148	0	0.66	100	1e-09
0	0.26828912	-0.021309607	0	-2.1974177e-17	-2.6037632e-17	1.5707964	1.5707964	1.5707964	4.712389	4.712389	0.9822919	-0.13730195	0	0.08042411	0.9878296	0	-0.0002419489	0.9996019	0	0.057980895	-0.98985106	0	0.22099078	-0.9668266	0	0.66	100	1e-09
0	0.6364883	0.33549836	0	-2.2053232e-17	-2.6037637e-17	1.5707964	3.1415927	1.5707964	0	0	0.9665165	-0.22528999	0	0.25520372	0.95937234	0	-0.00032289352	0.9996021	0	0.9764428	-0.1748878	0	0.9846016	0.11869514	0	0.66	100	1e-09
0	0.50281745	0.4945087	0	-2.2032409e-17	-2.6037647e-17	1.5707964	3.1415927	1.5707964	0	1.5707964	0.9641134	-0.23558515	0	0.37819722	0.91970575	0	-0.00018540367	0.9996025	0	0.9748882	-0.1835136	0	0.19707353	0.97233415	0	0.66	100	1e-09
0	0.23214838	0.33741197	0	-2.1904312e-17	-2.6037642e-17	1.5707964	3.1415927	1.5707964	0	3.1415927	0.9542317	-0.27418542	0	0.20733531	0.9699768	0	-3.352448e-05	0.9996023	0	0.97549725	-0.180062	0	-0.97628874	0.17172842	0	0.66	100	1e-09
0	0.451337	0.12085498	0	-2.1942152e-17	-2.6037629e-17	1.5707964	3.1415927	1.5707964	0	4.712389	0.9605873	-0.25024518	0	0.08602416	0.98739004	0	-0.00025732693	0.9996018	0	0.97756004	-0.16830206	0	0.23277073	-0.9641698	0	0.66	100	1e-09
0	0.45577216	0.60749495	0	-2.1961028e-17	-2.6037639e-17	1.5707964	3.1415927	1.5707964	1.5707964	0	0.9905661	-0.02541145	0	0.22695218	0.9661273	0	-0.00052433857	0.9996023	0	0.07617999	0.9881662	0	0.9856869	0.108990066	0	0.66	100	1e-09
0	0.31796387	0.77114254	0	-2.193862e-17	-2.6037652e-17	1.5707964	3.1415927	1.5707964	1.5707964	1.5707964	0.9900778	-0.04004639	0	0.33947897	0.9339965	0	-0.00037866473	0.99960274	0	0.06994743	0.98858875	0	0.19069375	0.9735707	0	0.66	100	1e-09
0	0.045592166	0.61114854	0	-2.1818437e-17	-2.6037647e-17	1.5707964	3.1415927	1.5707964	1.5707964	3.1415927	0.98891205	-0.06115307	0	0.1697886	0.976966	0	-0.00023540363	0.99960244	0	0.049210936	0.98981273	0	-0.9797153	0.15051433	0	0.66	100	1e-09
0	0.26402146	0.3956644	0	-2.1857566e-17	-2.6037634e-17	1.5707964	3.1415927	1.5707964	1.5707964	4.712389	0.99027616	-0.032462206	0	0.054792915	0.9895305	0	-0.00045934363	0.9996021	0	0.05839023	0.9893633	0	0.21710737	-0.9677115	0	0.66	100	1e-09
0	0.24280787	0.39646608	0	-2.2008283e-17	-2.6037642e-17	1.5707964	3.1415927	1.5707964	3.1415927	0	0.9886738	0.067666285	0	0.21804546	0.968107	0	-0.0004738493	0.9996024	0	-0.9772606	-0.16762523	0	0.9850546	0.11457985	0	0.66	100	1e-09
0	0.10332409	0.55742043	0	-2.1991123e-17	-2.603765e-17	1.5707964	3.1415927	1.5707964	3.1415927	1.5707964	0.9896942	0.049453698	0	0.3251961	0.9388738	0	-0.00032141389	0.99960274	0	-0.9756978	-0.17677648	0	0.17774937	0.9759484	0	0.66	100	1e-09
0	-0.16106865	0.40036926	0	-2.187479e-17	-2.6037647e-17	1.5707964	3.1415927	1.5707964	3.1415927	3.1415927	0.9901602	0.03594287	0	0.16121346	0.9783616	0	-0.00018586169	0.9996026	0	-0.97742707	-0.16668107	0	-0.979104	0.1546204	0	0.66	100	1e-09
0	0.051770147	0.18565659	0	-2.1906309e-17	-2.6037634e-17	1.5707964	3.1415927	1.5707964	3.1415927	4.712389	0.98874074	0.06563179	0	0.046595614	0.98992836	0	-0.00041101477	0.9996021	0	-0.97909796	-0.15623659	0	0.20302336	-0.97064286	0	0.66	100	1e-09
0	0.4569757	0.19419634	0	-2.2083929e-17	-2.6037637e-17	1.5707964	3.1415927	1.5707964	4.712389	0	0.98410785	-0.12331729	0	0.24904197	0.9609262	0	-0.00030420127	0.9996022	0	0.067958474	-0.98923945	0	0.98407423	0.1230099	0	0.66	100	1e-09
0	0.3196292	0.3548584	0	-2.2067036e-17	-2.603765e-17	1.5707964	3.1415927	1.5707964	4.712389	1.5707964	0.9826509	-0.13469443	0	0.3654327	0.9246408	0	-0.0001625775	0.9996026	0	0.063320205	-0.9895401	0	0.18690486	0.97428316	0	0.66	100	1e-09
0	0.05061164	0.19931798	0	-2.194236e-17	-2.6037642e-17	1.5707964	3.1415927	1.5707964	4.712389	3.1415927	0.97928876	-0.1577937	0	0.20056589	0.97133327	0	-2.0709409e-05	0.99960244	0	0.04917188	-0.9903161	0	-0.9759475	0.17376414	0	0.66	100	1e-09
0	0.26830286	-0.021306202	0	-2.1974177e-17	-2.6037632e-17	1.5707964	3.1415927	1.5707964	4.712389	4.712389	0.98229235	-0.13729845	0	0.080428705	0.9878294	0	-0.00024195897	0.9996019	0	0.057981614	-0.98985094	0	0.22105359	-0.9668128	0	0.66	100	1e-09
0	0.7797975	0.22119528	0	-2.2066203e-17	-2.6037689e-17	1.5707964	4.712389	1.5707964	0	0	0.9827098	-0.13284728	0	0.96758413	0.21889785	0	-0.000587886	0.99960417	0	0.9765131	-0.17459317	0	0.9727685	0.1949148	0	0.66	100	1e-09
0	0.6092299	0.35963517	0	-2.209015e-17	-2.6037702e-17	1.5707964	4.712389	1.5707964	0	1.5707964	0.981219	-0.14353877	0	0.9820728	0.13763502	0	-0.00036380716	0.9996047	0	0.9753054	-0.18132557	0	0.10791621	0.9858008	0	0.66	100	1e-09
0	0.39604053	0.17453767	0	-2.1985849e-17	-2.6037708e-17	1.5707964	4.712389	1.5707964	0	3.1415927	0.9812235	-0.14318733	0	0.99077344	-0.024520928	0	-0.00030066574	0.9996048	0	0.97597957	-0.17750512	0	-0.9674731	0.2182968	0	0.66	100	1e-09
0	0.6192351	-0.04290632	0	-2.1945704e-17	-2.6037694e-17	1.5707964	4.712389	1.5707964	0	4.712389	0.9833763	-0.12734134	0	0.9892955	0.061239786	0	-0.0006230715	0.99960446	0	0.97768646	-0.16768275	0	0.14644	-0.9803516	0	0.66	100	1e-09
0	0.60563314	0.48761404	0	-2.1967748e-17	-2.6037694e-17	1.5707964	4.712389	1.5707964	1.5707964	0	0.98985744	0.04906013	0	0.96828526	0.21542671	0	-0.0008004149	0.9996042	0	0.09665065	0.9864377	0	0.97417253	0.18754128	0	0.66	100	1e-09
0	0.4321475	0.62883586	0	-2.1992148e-17	-2.6037707e-17	1.5707964	4.712389	1.5707964	1.5707964	1.5707964	0.99024254	0.039946694	0	0.98292315	0.13083197	0	-0.00057467545	0.99960476	0	0.08777787	0.9872259	0	0.10036846	0.9865699	0	0.66	100	1e-09
0	0.21606751	0.44060993	0	-2.1894467e-17	-2.6037717e-17	1.5707964	4.712389	1.5707964	1.5707964	3.1415927	0.989789	0.049639724	0	0.9903299	-0.038076244	0	-0.0005155794	0.99960524	0	0.07135964	0.98852915	0	-0.9706255	0.2033519	0	0.66	100	1e-09
0	0.43834814	0.22352295	0	-2.1854155e-17	-2.6037702e-17	1.5707964	4.712389	1.5707964	1.5707964	4.712389	0.9889585	0.06472325	0	0.9899658	0.048140682	0	-0.0008345771	0.9996045	0	0.082921855	0.9876769	0	0.13072912	-0.9825308	0	0.66	100	1e-09
0	0.38873506	0.27523842	0	-2.2008412e-17	-2.6037694e-17	1.5707964	4.712389	1.5707964	3.1415927	0	0.98385525	0.121128306	0	0.96436495	0.23275138	0	-0.0007486076	0.99960434	0	-0.97607106	-0.17459717	0	0.97227484	0.1973052	0	0.66	100	1e-09
0	0.21616527	0.41254133	0	-2.2038315e-17	-2.6037707e-17	1.5707964	4.712389	1.5707964	3.1415927	1.5707964	0.9849824	0.1111974	0	0.98106027	0.14447351	0	-0.0005222622	0.9996048	0	-0.97511214	-0.18007262	0	0.09041809	0.9875037	0	0.66	100	1e-09
0	0.0056234975	0.22750486	0	-2.194264e-17	-2.6037713e-17	1.5707964	4.712389	1.5707964	3.1415927	3.1415927	0.98388845	0.1206071	0	0.9907829	-0.02240881	0	-0.0004662461	0.99960524	0	-0.9768261	-0.17027354	0	-0.96926147	0.20999432	0	0.66	100	1e-09
0	0.22212364	0.010506891	0	-2.1894832e-17	-2.6037702e-17	1.5707964	4.712389	1.5707964	3.1415927	4.712389	0.98195624	0.1359804	0	0.98908913	0.06378133	0	-0.0007851448	0.99960464	0	-0.97805256	-0.16281359	0	0.11841049	-0.98401827	0	0.66	100	1e-09
0	0.6018698	0.077721946	0	-2.2092313e-17	-2.603769e-17	1.5707964	4.712389	1.5707964	4.712389	0	0.98993623	-0.055461578	0	0.96476895	0.23124026	0	-0.000564743	0.99960434	0	0.08371975	-0.9880673	0	0.97148824	0.2012941	0	0.66	100	1e-09
0	0.42924133	0.21612464	0	-2.2120462e-17	-2.6037702e-17	1.5707964	4.712389	1.5707964	4.712389	1.5707964	0.9894392	-0.06368182	0	0.9807835	0.14671585	0	-0.00034247988	0.99960464	0	0.07645889	-0.98863924	0	0.09986762	0.9866235	0	0.66	100	1e-09
0	0.21601957	0.031657316	0	-2.2018243e-17	-2.6037708e-17	1.5707964	4.712389	1.5707964	4.712389	3.1415927	0.9896199	-0.060041405	0	0.9909578	-0.014266235	0	-0.0002825125	0.999605	0	0.06639254	-0.9893404	0	-0.9665897	0.22232965	0	0.66	100	1e-09