# t (s)	mx ()	my ()	mz ()	E_total (J)	E_Zeeman (J)	a1 (rad)	a2 (rad)	a3 (rad)	a4 (rad)	a5 (rad)	m.region1x ()	m.region1y ()	m.region1z ()	m.region2x ()	m.region2y ()	m.region2z ()	m.region3x ()	m.region3y ()	m.region3z ()	m.region4x ()	m.region4y ()	m.region4z ()	m.region5x ()	m.region5y ()	m.region5z ()	roundness ()	size (m)	Cell_size (m)
0	0.7848802	0.26790679	6.4516964e-26	-2.1719144e-17	-2.5847778e-17	0	0	1.5707964	0	0	0.99234724	-0.008416333	-1.175227e-28	0.9714769	0.20650795	1.3523223e-27	-0.00069611904	0.9996819	3.2137888e-25	0.99021715	-0.06827615	2.0509346e-28	0.9710558	0.2100366	-2.3469539e-28	0.66	100	2e-09
0	0.6228386	0.39883804	0	-2.1732192e-17	-2.5847784e-17	0	0	1.5707964	0	1.5707964	0.9921158	-0.02302324	0	0.98557246	0.12022035	0	-0.00047637656	0.9996823	0	0.9889728	-0.08475314	0	0.14800869	0.98206383	0	0.66	100	2e-09
0	0.40280148	0.22444038	0	-2.1625582e-17	-2.5847794e-17	0	0	1.5707964	0	3.1415927	0.99231005	-0.01012093	0	0.9900753	-0.07001669	0	-0.0003999123	0.9996827	0	0.9908541	-0.057421874	0	-0.95883226	0.26007867	0	0.66	100	2e-09
0	0.6383792	0.008967368	0	-2.1598584e-17	-2.5847784e-17	0	0	1.5707964	0	4.712389	0.9922719	0.014200973	0	0.99202335	0.033234686	0	-0.0007440578	0.9996822	0	0.99194455	-0.03311512	0	0.21640047	-0.96916574	0	0.66	100	2e-09
0	0.5618229	0.5382685	0	-2.1735595e-17	-2.5847775e-17	0	0	1.5707964	1.5707964	0	0.96876645	0.21987824	0	0.9555515	0.27211133	0	-0.0008748386	0.9996819	0	-0.085214764	0.9890765	0	0.97088605	0.21059453	0	0.66	100	2e-09
0	0.38684702	0.6695655	0	-2.1757633e-17	-2.5847784e-17	0	0	1.5707964	1.5707964	1.5707964	0.9710128	0.20941135	0	0.9789038	0.16686621	0	-0.00065297465	0.9996824	0	-0.12498725	0.9849647	0	0.10995854	0.98690283	0	0.66	100	2e-09
0	0.16930982	0.48257917	0	-2.1668011e-17	-2.5847801e-17	0	0	1.5707964	1.5707964	3.1415927	0.96775246	0.22437419	0	0.9919813	-0.027957508	0	-0.0005863259	0.9996828	0	-0.1474867	0.9819516	0	-0.96511173	0.23484482	0	0.66	100	2e-09
0	0.40237167	0.26569664	0	-2.1627875e-17	-2.5847783e-17	0	0	1.5707964	1.5707964	4.712389	0.9633955	0.24295658	0	0.9894192	0.07832544	0	-0.0009174866	0.9996822	0	-0.09147145	0.9885476	0	0.1514327	-0.9810285	0	0.66	100	2e-09
0	0.38089344	0.297654	0	-2.1768092e-17	-2.5847773e-17	0	0	1.5707964	3.1415927	0	0.9927188	-0.019699773	0	0.9423093	0.315911	0	-0.00064330077	0.9996818	0	-0.9912217	-0.059049096	0	0.96130407	0.25142625	0	0.66	100	2e-09
0	0.21254334	0.41878644	0	-2.1803573e-17	-2.5847783e-17	0	0	1.5707964	3.1415927	1.5707964	0.99247986	-0.028840303	0	0.97262603	0.20132275	0	-0.0004294007	0.9996823	0	-0.9907286	-0.067202725	0	0.088768914	0.9889704	0	0.66	100	2e-09
0	0.0076108673	0.2474637	0	-2.1713054e-17	-2.5847793e-17	0	0	1.5707964	3.1415927	3.1415927	0.9926785	-0.019149365	0	0.9920733	0.025226638	0	-0.00037154648	0.9996826	0	-0.9919504	-0.04496636	0	-0.9543756	0.27652502	0	0.66	100	2e-09
0	0.22271265	0.023202498	0	-2.1653143e-17	-2.5847778e-17	0	0	1.5707964	3.1415927	4.712389	0.9928804	-0.0011046547	0	0.9841339	0.12988938	0	-0.00069884054	0.99968207	0	-0.9925215	-0.028530579	0	0.12976928	-0.98392373	0	0.66	100	2e-09
0	0.56189585	0.05699371	0	-2.1771569e-17	-2.5847773e-17	0	0	1.5707964	4.712389	0	0.96546847	-0.2325265	0	0.9594166	0.25800934	0	-0.0004899364	0.99968183	0	-0.07672654	-0.9898458	0	0.9618111	0.24964978	0	0.66	100	2e-09
0	0.3900153	0.18392488	0	-2.179985e-17	-2.584778e-17	0	0	1.5707964	4.712389	1.5707964	0.9627267	-0.24371542	0	0.97938114	0.16448842	0	-0.00027762933	0.9996822	0	-0.10869733	-0.98695374	0	0.11694368	0.986123	0	0.66	100	2e-09
0	0.17460541	0.013850782	0	-2.169647e-17	-2.5847793e-17	0	0	1.5707964	4.712389	3.1415927	0.9623343	-0.24511401	0	0.9924707	-0.005684723	0	-0.00020372558	0.9996824	0	-0.13533022	-0.98372906	0	-0.94624406	0.30409917	0	0.66	100	2e-09
0	0.41018662	-0.22001715	0	-2.1645442e-17	-2.5847778e-17	0	0	1.5707964	4.712389	4.712389	0.9670438	-0.22555873	0	0.9885321	0.09042271	0	-0.0005383296	0.999682	0	-0.08719853	-0.98896194	0	0.18309398	-0.97566986	0	0.66	100	2e-09
0	0.6557348	0.38940856	0	-2.1695445e-17	-2.5847732e-17	0	1.5707964	1.5707964	0	0	0.98788583	-0.09431659	0	0.31496897	0.9432613	0	-0.0004720749	0.99968016	0	0.9918642	-0.032706972	0	0.9844269	0.13112466	0	0.66	100	2e-09
0	0.6228892	0.39865595	0	-2.1732189e-17	-2.5847784e-17	0	1.5707964	1.5707964	0	1.5707964	0.9921062	-0.023452492	0	0.98554814	0.12042477	0	-0.00047622746	0.99968237	0	0.9889197	-0.08538911	0	0.14834836	0.9820141	0	0.66	100	2e-09
0	0.40280133	0.22444148	0	-2.162558e-17	-2.5847794e-17	0	1.5707964	1.5707964	0	3.1415927	0.99231005	-0.010113099	0	0.99007493	-0.070022196	0	-0.00039991437	0.9996828	0	0.99085444	-0.057416115	0	-0.958833	0.26007608	0	0.66	100	2e-09
0	0.6383401	0.008928034	0	-2.1598582e-17	-2.5847783e-17	0	1.5707964	1.5707964	0	4.712389	0.99227226	0.014168703	0	0.9920255	0.033165444	0	-0.00074400514	0.9996822	0	0.9919429	-0.033167753	0	0.21620417	-0.9692084	0	0.66	100	2e-09
0	0.56182545	0.5382573	0	-2.1735595e-17	-2.5847778e-17	0	1.5707964	1.5707964	1.5707964	0	0.96877015	0.21986136	0	0.95555735	0.27209073	0	-0.00087483245	0.9996819	0	-0.08521508	0.9890767	0	0.9708899	0.2105761	0	0.66	100	2e-09
0	0.38684565	0.66956836	0	-2.1757633e-17	-2.5847788e-17	0	1.5707964	1.5707964	1.5707964	1.5707964	0.9710169	0.2093919	0	0.97890073	0.16688496	0	-0.00065296306	0.99968237	0	-0.124927014	0.9849722	0	0.10989066	0.98691005	0	0.66	100	2e-09
0	0.1693092	0.48257586	0	-2.1668011e-17	-2.5847801e-17	0	1.5707964	1.5707964	1.5707964	3.1415927	0.9677514	0.2243793	0	0.99198115	-0.027966684	0	-0.0005863268	0.9996828	0	-0.14748533	0.9819518	0	-0.9651148	0.23483187	0	0.66	100	2e-09
0	0.40237018	0.26569578	0	-2.1627875e-17	-2.5847783e-17	0	1.5707964	1.5707964	1.5707964	4.712389	0.9633914	0.24297284	0	0.9894206	0.07830689	0	-0.0009174878	0.9996822	0	-0.09145186	0.98854935	0	0.15140824	-0.98103225	0	0.66	100	2e-09
0	0.3808985	0.29764593	0	-2.1768092e-17	-2.5847773e-17	0	1.5707964	1.5707964	3.1415927	0	0.9927195	-0.01967311	0	0.942324	0.31586617	0	-0.00064331904	0.99968183	0	-0.99122304	-0.05902675	0	0.9613155	0.25138152	0	0.66	100	2e-09
0	0.21254885	0.41878328	0	-2.1803576e-17	-2.5847784e-17	0	1.5707964	1.5707964	3.1415927	1.5707964	0.9924797	-0.028843459	0	0.9726297	0.20130455	0	-0.00042940082	0.9996822	0	-0.99072915	-0.067195274	0	0.08879348	0.9889682	0	0.66	100	2e-09
0	0.007604567	0.24743862	0	-2.1713053e-17	-2.5847793e-17	0	1.5707964	1.5707964	3.1415927	3.1415927	0.99267864	-0.01914111	0	0.99207395	0.025199741	0	-0.00037155455	0.9996826	0	-0.9919507	-0.044958886	0	-0.9544076	0.27641067	0	0.66	100	2e-09
0	0.22271158	0.023202881	0	-2.1653145e-17	-2.5847778e-17	0	1.5707964	1.5707964	3.1415927	4.712389	0.9928804	-0.0011030312	0	0.9841341	0.12988773	0	-0.0006988407	0.9996821	0	-0.9925215	-0.028527925	0	0.12976387	-0.98392457	0	0.66	100	2e-09
0	0.56188965	0.056997735	0	-2.177157e-17	-2.5847773e-17	0	1.5707964	1.5707964	4.712389	0	0.9654621	-0.23255347	0	0.9594113	0.2580295	0	-0.0004899241	0.9996818	0	-0.07673987	-0.9898448	0	0.9618046	0.24967566	0	0.66	100	2e-09
0	0.39001632	0.18392433	0	-2.1799847e-17	-2.5847783e-17	0	1.5707964	1.5707964	4.712389	1.5707964	0.96272665	-0.24371561	0	0.97938144	0.16448645	0	-0.0002776296	0.9996822	0	-0.10869854	-0.9869537	0	0.11694963	0.98612237	0	0.66	100	2e-09
0	0.17460196	0.013837151	0	-2.169647e-17	-2.584779e-17	0	1.5707964	1.5707964	4.712389	3.1415927	0.962335	-0.24511147	0	0.9924707	-0.005695934	0	-0.0002037288	0.9996824	0	-0.1353297	-0.98372906	0	-0.9462625	0.30403975	0	0.66	100	2e-09
0	0.41018766	-0.22001661	0	-2.164544e-17	-2.5847778e-17	0	1.5707964	1.5707964	4.712389	4.712389	0.9670439	-0.22555825	0	0.98853195	0.090424076	0	-0.00053833035	0.999682	0	-0.0871979	-0.98896194	0	0.18309884	-0.97566897	0	0.66	100	2e-09
0	0.7848792	0.2679208	0	-2.171914e-17	-2.5847778e-17	0	3.1415927	1.5707964	0	0	0.9923475	-0.008396855	0	0.97147876	0.20649897	0	-0.0006961213	0.9996819	0	0.9902185	-0.068256564	0	0.9710475	0.2100765	0	0.66	100	2e-09
0	0.6228436	0.3988293	0	-2.1732192e-17	-2.5847788e-17	0	3.1415927	1.5707964	0	1.5707964	0.99211544	-0.023041734	0	0.98557085	0.12023215	0	-0.00047637222	0.9996823	0	0.98897	-0.08478591	0	0.14803818	0.9820594	0	0.66	100	2e-09
0	0.4027997	0.22443277	0	-2.1625578e-17	-2.5847794e-17	0	3.1415927	1.5707964	0	3.1415927	0.99231005	-0.010120869	0	0.99007493	-0.070023105	0	-0.0003999139	0.9996828	0	0.99085397	-0.057422508	0	-0.95884037	0.26004758	0	0.66	100	2e-09
0	0.63838017	0.00894597	0	-2.1598582e-17	-2.584778e-17	0	3.1415927	1.5707964	0	4.712389	0.9922726	0.014151492	0	0.99202305	0.033243194	0	-0.0007440337	0.9996822	0	0.99194247	-0.033182558	0	0.216407	-0.96916443	0	0.66	100	2e-09
0	0.5618249	0.53825337	0	-2.1735593e-17	-2.5847778e-17	0	3.1415927	1.5707964	1.5707964	0	0.9687737	0.21984531	0	0.95555747	0.2720899	0	-0.0008748256	0.99968183	0	-0.085222214	0.9890761	0	0.97089046	0.21057361	0	0.66	100	2e-09
0	0.3868384	0.6695768	0	-2.1757633e-17	-2.5847788e-17	0	3.1415927	1.5707964	1.5707964	1.5707964	0.97101337	0.20940843	0	0.9788951	0.16691858	0	-0.000652977	0.9996824	0	-0.12497306	0.9849665	0	0.10990948	0.98690796	0	0.66	100	2e-09
0	0.16930857	0.48257253	0	-2.166801e-17	-2.5847798e-17	0	3.1415927	1.5707964	1.5707964	3.1415927	0.9677503	0.22438408	0	0.99198085	-0.027975366	0	-0.0005863273	0.9996828	0	-0.1474843	0.98195195	0	-0.9651178	0.23481934	0	0.66	100	2e-09
0	0.4023703	0.26569596	0	-2.1627875e-17	-2.5847784e-17	0	3.1415927	1.5707964	1.5707964	4.712389	0.96339566	0.24295579	0	0.98941934	0.07832369	0	-0.0009174853	0.9996822	0	-0.091473475	0.98854744	0	0.1514276	-0.9810294	0	0.66	100	2e-09
0	0.38088718	0.29768202	0	-2.1768092e-17	-2.584777e-17	0	3.1415927	1.5707964	3.1415927	0	0.992719	-0.019698596	0	0.9422876	0.31597695	0	-0.0006433046	0.9996818	0	-0.9912245	-0.05900259	0	0.9612973	0.2514527	0	0.66	100	2e-09
0	0.21255292	0.41879186	0	-2.1803576e-17	-2.5847784e-17	0	3.1415927	1.5707964	3.1415927	1.5707964	0.9924793	-0.028858276	0	0.97262144	0.20134574	0	-0.0004294069	0.9996823	0	-0.9907305	-0.067176044	0	0.08882371	0.9889656	0	0.66	100	2e-09
0	0.0076104538	0.24746309	0	-2.1713056e-17	-2.5847793e-17	0	3.1415927	1.5707964	3.1415927	3.1415927	0.99267864	-0.019140774	0	0.99207366	0.025215965	0	-0.00037154832	0.9996826	0	-0.99195063	-0.044959515	0	-0.9543779	0.27651718	0	0.66	100	2e-09
0	0.22271052	0.023201065	0	-2.1653143e-17	-2.584778e-17	0	3.1415927	1.5707964	3.1415927	4.712389	0.9928804	-0.0011043329	0	0.9841346	0.12988375	0	-0.00069883873	0.9996821	0	-0.9925215	-0.02853098	0	0.12975794	-0.9839252	0	0.66	100	2e-09
0	0.5618898	0.057000272	0	-2.177157e-17	-2.5847773e-17	0	3.1415927	1.5707964	4.712389	0	0.96546096	-0.23255834	0	0.9594118	0.2580279	0	-0.000489919	0.9996818	0	-0.07673317	-0.98984534	0	0.9617996	0.24969532	0	0.66	100	2e-09
0	0.39001733	0.18392356	0	-2.179985e-17	-2.584778e-17	0	3.1415927	1.5707964	4.712389	1.5707964	0.9627264	-0.24371621	0	0.97938174	0.1644838	0	-0.00027762994	0.99968207	0	-0.10869972	-0.9869535	0	0.11695568	0.9861218	0	0.66	100	2e-09
0	0.17460752	0.0138590345	0	-2.169647e-17	-2.5847788e-17	0	3.1415927	1.5707964	4.712389	3.1415927	0.96233416	-0.24511494	0	0.99247074	-0.0056782137	0	-0.00020372341	0.9996824	0	-0.13533053	-0.98372906	0	-0.94623303	0.30413482	0	0.66	100	2e-09
0	0.41019294	-0.220014	0	-2.164544e-17	-2.5847778e-17	0	3.1415927	1.5707964	4.712389	4.712389	0.9670435	-0.22556004	0	0.9885311	0.090434134	0	-0.0005383343	0.99968207	0	-0.087197125	-0.98896194	0	0.1831254	-0.975664	0	0.66	100	2e-09
0	0.78486603	0.26793173	0	-2.1719144e-17	-2.5847775e-17	0	4.712389	1.5707964	0	0	0.9923459	-0.008582326	0	0.9714205	0.20677933	0	-0.00069607666	0.9996819	0	0.99021506	-0.06830796	0	0.97104514	0.21008763	0	0.66	100	2e-09
0	0.62284863	0.39883476	0	-2.1732189e-17	-2.5847784e-17	0	4.712389	1.5707964	0	1.5707964	0.9921159	-0.023019973	0	0.98557276	0.120217405	0	-0.00047638337	0.9996823	0	0.98897195	-0.08476241	0	0.14805904	0.98205644	0	0.66	100	2e-09
0	0.40280068	0.22444414	0	-2.162558e-17	-2.5847794e-17	0	4.712389	1.5707964	0	3.1415927	0.9923102	-0.010100485	0	0.9900747	-0.070025645	0	-0.0003999223	0.9996827	0	0.9908555	-0.057395738	0	-0.9588372	0.26005974	0	0.66	100	2e-09
0	0.638372	0.008942373	0	-2.1598582e-17	-2.5847783e-17	0	4.712389	1.5707964	0	4.712389	0.99227256	0.014155012	0	0.9920234	0.033227485	0	-0.000744028	0.9996822	0	0.9919425	-0.033179402	0	0.21636574	-0.9691734	0	0.66	100	2e-09
0	0.5618243	0.5382727	0	-2.1735592e-17	-2.5847778e-17	0	4.712389	1.5707964	1.5707964	0	0.96876043	0.21990542	0	0.95555323	0.27210507	0	-0.00087485014	0.9996819	0	-0.08520376	0.9890775	0	0.9708863	0.21059324	0	0.66	100	2e-09
0	0.38685238	0.6695621	0	-2.1757633e-17	-2.584779e-17	0	4.712389	1.5707964	1.5707964	1.5707964	0.9710142	0.20940566	0	0.9789051	0.16685766	0	-0.0006529739	0.9996824	0	-0.12498708	0.9849648	0	0.1099827	0.9869001	0	0.66	100	2e-09
0	0.16930732	0.48256606	0	-2.1668011e-17	-2.5847798e-17	0	4.712389	1.5707964	1.5707964	3.1415927	0.967752	0.2243764	0	0.99198097	-0.027970562	0	-0.0005863287	0.9996828	0	-0.14748536	0.9819517	0	-0.96512467	0.2347898	0	0.66	100	2e-09
0	0.402354	0.26568648	0	-2.1627875e-17	-2.5847784e-17	0	4.712389	1.5707964	1.5707964	4.712389	0.9633933	0.2429654	0	0.9894226	0.07827919	0	-0.0009174716	0.9996822	0	-0.09147378	0.98854744	0	0.15134536	-0.9810417	0	0.66	100	2e-09
0	0.38089475	0.2976493	0	-2.1768092e-17	-2.5847773e-17	0	4.712389	1.5707964	3.1415927	0	0.992719	-0.019698093	0	0.9423133	0.31589872	0	-0.000643302	0.9996818	0	-0.9912214	-0.059052784	0	0.96130645	0.25141683	0	0.66	100	2e-09
0	0.21254161	0.41878814	0	-2.1803576e-17	-2.5847784e-17	0	4.712389	1.5707964	3.1415927	1.5707964	0.99247974	-0.028840978	0	0.9726246	0.20132992	0	-0.00042940068	0.9996823	0	-0.9907287	-0.067201346	0	0.088761896	0.988971	0	0.66	100	2e-09
0	0.007609957	0.2474598	0	-2.1713056e-17	-2.5847793e-17	0	4.712389	1.5707964	3.1415927	3.1415927	0.9926785	-0.01914938	0	0.9920734	0.025223725	0	-0.0003715473	0.9996826	0	-0.99195033	-0.04496642	0	-0.95438015	0.27650845	0	0.66	100	2e-09
0	0.22270152	0.023223758	0	-2.1653147e-17	-2.584778e-17	0	4.712389	1.5707964	3.1415927	4.712389	0.99288046	-0.0010699183	0	0.9841322	0.12990306	0	-0.0006988587	0.9996821	0	-0.9925234	-0.028465994	0	0.1297172	-0.9839304	0	0.66	100	2e-09
0	0.56189233	0.056997545	0	-2.177157e-17	-2.5847773e-17	0	4.712389	1.5707964	4.712389	0	0.96546304	-0.23254965	0	0.9594136	0.25802082	0	-0.00048992416	0.99968183	0	-0.07672856	-0.98984563	0	0.9618035	0.24968047	0	0.66	100	2e-09
0	0.3900135	0.18390286	0	-2.179985e-17	-2.5847783e-17	0	4.712389	1.5707964	4.712389	1.5707964	0.96271294	-0.24376997	0	0.97939026	0.16443226	0	-0.00027759912	0.9996821	0	-0.10869684	-0.9869539	0	0.11693863	0.98612356	0	0.66	100	2e-09
0	0.17460437	0.013846651	0	-2.1696468e-17	-2.584779e-17	0	4.712389	1.5707964	4.712389	3.1415927	0.962335	-0.24511158	0	0.9924707	-0.0056889523	0	-0.00020372693	0.9996824	0	-0.13533022	-0.98372906	0	-0.94624996	0.30408028	0	0.66	100	2e-09
0	0.41019705	-0.22001201	0	-2.1645442e-17	-2.5847778e-17	0	4.712389	1.5707964	4.712389	4.712389	0.9670435	-0.2255601	0	0.9885305	0.090440854	0	-0.0005383375	0.99968207	0	-0.087195404	-0.98896205	0	0.18314497	-0.97566056	0	0.66	100	2e-09
0	0.6136426	0.50545186	0	-2.1682639e-17	-2.5847788e-17	1.5707964	0	1.5707964	0	0	0.14194295	0.9826597	0	0.9822914	0.14281824	0	-0.0012237489	0.9996824	0	0.9687078	0.21970953	0	0.9764946	0.18238914	0	0.66	100	2e-09
0	0.44542998	0.6458642	0	-2.1693147e-17	-2.5847803e-17	1.5707964	0	1.5707964	0	1.5707964	0.13628213	0.98343885	0	0.9914389	0.04191718	0	-0.000997679	0.999683	0	0.968648	0.21998364	0	0.13177854	0.9842982	0	0.66	100	2e-09
0	0.2066046	0.44052723	0	-2.1605374e-17	-2.5847818e-17	1.5707964	0	1.5707964	0	3.1415927	0.08298298	0.98926574	0	0.9662506	-0.228955	0	-0.00089261745	0.99968356	0	0.96000934	0.25613448	0	-0.97532743	0.18650724	0	0.66	100	2e-09
0	0.4395234	0.23112911	0	-2.1580985e-17	-2.5847801e-17	1.5707964	0	1.5707964	0	4.712389	0.097434595	0.9879777	0	0.9871133	-0.10488267	0	-0.0012278924	0.9996829	0	0.960626	0.25372177	0	0.15367101	-0.980854	0	0.66	100	2e-09
0	0.43227535	0.6756396	0	-2.1737451e-17	-2.5847783e-17	1.5707964	0	1.5707964	1.5707964	0	0.21192384	0.97045225	0	0.9671	0.2259576	0	-0.0012739394	0.9996823	0	0.008492974	0.99262744	0	0.9751338	0.18947847	0	0.66	100	2e-09
0	0.25529474	0.8114015	0	-2.1757036e-17	-2.5847803e-17	1.5707964	0	1.5707964	1.5707964	1.5707964	0.21253899	0.97032976	0	0.9868453	0.106743	0	-0.0010450232	0.9996829	0	-0.022679014	0.99240714	0	0.10081344	0.9878449	0	0.66	100	2e-09
0	0.028542953	0.60196567	0	-2.1679785e-17	-2.5847813e-17	1.5707964	0	1.5707964	1.5707964	3.1415927	0.17256989	0.97803986	0	0.98156285	-0.1478086	0	-0.0009568428	0.9996833	0	-0.035392433	0.99206746	0	-0.9750688	0.18784635	0	0.66	100	2e-09
0	0.25750536	0.39145255	0	-2.164291e-17	-2.5847794e-17	1.5707964	0	1.5707964	1.5707964	4.712389	0.1760056	0.9774382	0	0.99209785	-0.026600381	0	-0.0012837462	0.9996826	0	0.005677681	0.9926709	0	0.11502929	-0.9859286	0	0.66	100	2e-09
0	0.2165772	0.025606923	0	-2.1830496e-17	-2.584771e-17	1.5707964	0	1.5707964	3.1415927	0	0.0195601	-0.9926921	0	0.09978149	0.9882507	0	3.55105e-05	0.99967957	0	-0.02159385	-0.99245006	0	0.9851027	0.12524652	0	0.66	100	2e-09
0	0.071990736	0.1933543	0	-2.1817653e-17	-2.5847718e-17	1.5707964	0	1.5707964	3.1415927	1.5707964	0.035124004	-0.99227285	0	0.19398944	0.9745751	0	0.0001830162	0.99967974	0	-0.053815488	-0.99126244	0	0.18447268	0.976052	0	0.66	100	2e-09
0	-0.22526908	0.032664888	0	-2.1717587e-17	-2.5847713e-17	1.5707964	0	1.5707964	3.1415927	3.1415927	-0.038000885	-0.9922363	0	-0.022090107	0.992432	0	0.00034525504	0.99967957	0	-0.08566977	-0.989029	0	-0.9809299	0.15247816	0	0.66	100	2e-09
0	-0.004118111	-0.19446187	0	-2.1743414e-17	-2.5847708e-17	1.5707964	0	1.5707964	3.1415927	4.712389	-0.055042934	-0.99143964	0	-0.12567076	0.98493373	0	0.00013090395	0.99967927	0	-0.035951134	-0.9919971	0	0.19594334	-0.9734855	0	0.66	100	2e-09
0	0.21647264	0.025536535	0	-2.1830492e-17	-2.5847713e-17	1.5707964	0	1.5707964	4.712389	0	0.019255621	-0.99269813	0	0.09941819	0.98828614	0	3.5660396e-05	0.9996795	0	-0.0214958	-0.992452	0	0.9851495	0.12486711	0	0.66	100	2e-09
0	0.07199284	0.19335407	0	-2.1817653e-17	-2.5847718e-17	1.5707964	0	1.5707964	4.712389	1.5707964	0.035127357	-0.9922726	0	0.19399372	0.97457427	0	0.00018301344	0.99967974	0	-0.05381526	-0.99126244	0	0.18447535	0.9760515	0	0.66	100	2e-09
0	-0.22526866	0.032665048	0	-2.1717584e-17	-2.5847713e-17	1.5707964	0	1.5707964	4.712389	3.1415927	-0.038000982	-0.9922363	0	-0.022089077	0.992432	0	0.00034525443	0.99967957	0	-0.08566877	-0.9890291	0	-0.98092985	0.15247902	0	0.66	100	2e-09
0	-0.0041258	-0.1944634	0	-2.1743414e-17	-2.5847708e-17	1.5707964	0	1.5707964	4.712389	4.712389	-0.055034544	-0.9914402	0	-0.12566818	0.984934	0	0.0001309072	0.99967927	0	-0.035960432	-0.99199694	0	0.19590326	-0.9734933	0	0.66	100	2e-09
0	0.3808266	0.15985633	0	-2.1752498e-17	-2.5847717e-17	1.5707964	1.5707964	1.5707964	0	0	-0.09321424	-0.98846245	0	0.06045714	0.9912968	0	-5.2810916e-05	0.99967957	0	0.94842297	-0.29720232	0	0.98851997	0.093969986	0	0.66	100	2e-09
0	0.24863453	0.31984583	0	-2.172469e-17	-2.5847722e-17	1.5707964	1.5707964	1.5707964	0	1.5707964	-0.069480106	-0.99035436	0	0.16533604	0.97959656	0	9.3976625e-05	0.9996798	0	0.9274122	-0.35860163	0	0.21981058	0.9689086	0	0.66	100	2e-09
0	-0.060548827	0.1668523	0	-2.1622622e-17	-2.5847717e-17	1.5707964	1.5707964	1.5707964	0	3.1415927	-0.17565776	-0.97750014	0	-0.09381362	0.98825604	0	0.00026872515	0.9996796	0	0.95369035	-0.2791475	0	-0.98723185	0.102973476	0	0.66	100	2e-09
0	0.15995781	-0.040626373	0	-2.1670749e-17	-2.5847713e-17	1.5707964	1.5707964	1.5707964	0	4.712389	-0.19457914	-0.9739981	0	-0.18574262	0.9756825	0	4.7372047e-05	0.9996794	0	0.96530086	-0.2347822	0	0.21476258	-0.9697135	0	0.66	100	2e-09
0	0.18955274	0.41396183	0	-2.1663723e-17	-2.5847717e-17	1.5707964	1.5707964	1.5707964	1.5707964	0	-0.0042742644	-0.9929385	0	0.000568973	0.99325484	0	-0.00010475857	0.99967957	0	-0.038289588	0.9920757	0	0.98986334	0.07773757	0	0.66	100	2e-09
0	0.03555683	0.5925774	0	-2.1643426e-17	-2.5847722e-17	1.5707964	1.5707964	1.5707964	1.5707964	1.5707964	0.030003387	-0.99254686	0	0.09119842	0.9892226	0	5.5414577e-05	0.99967986	0	-0.10813301	0.9870173	0	0.16465995	0.9795139	0	0.66	100	2e-09
0	-0.28604087	0.4067645	0	-2.157117e-17	-2.5847717e-17	1.5707964	1.5707964	1.5707964	1.5707964	3.1415927	-0.12302494	-0.98543245	0	-0.18150437	0.976065	0	0.00023841907	0.9996796	0	-0.13512944	0.98381025	0	-0.990784	0.059700087	0	0.66	100	2e-09
0	-0.06614065	0.19730927	0	-2.1604381e-17	-2.5847708e-17	1.5707964	1.5707964	1.5707964	1.5707964	4.712389	-0.16037022	-0.9801035	0	-0.2624006	0.9583971	0	2.3285762e-05	0.9996795	0	-0.045404475	0.9918263	0	0.13744877	-0.9832531	0	0.66	100	2e-09
0	0.04318282	0.16985239	0	-2.1768002e-17	-2.5847713e-17	1.5707964	1.5707964	1.5707964	3.1415927	0	0.115876764	-0.9863572	0	0.06861672	0.9909421	0	1.9141367e-05	0.9996795	0	-0.9538834	-0.27850878	0	0.98528486	0.12350651	0	0.66	100	2e-09
0	-0.10620797	0.3399694	0	-2.1764298e-17	-2.5847718e-17	1.5707964	1.5707964	1.5707964	3.1415927	1.5707964	0.1258306	-0.985199	0	0.15309562	0.98176825	0	0.00017625553	0.99967974	0	-0.9536862	-0.27913854	0	0.14354385	0.9827366	0	0.66	100	2e-09
0	-0.3965529	0.18048148	0	-2.1683026e-17	-2.5847713e-17	1.5707964	1.5707964	1.5707964	3.1415927	3.1415927	0.036277827	-0.9923449	0	-0.067249365	0.99037236	0	0.00033026506	0.9996796	0	-0.96778333	-0.22363524	0	-0.9843401	0.12833558	0	0.66	100	2e-09
0	-0.19391179	-0.043696426	0	-2.1695488e-17	-2.5847705e-17	1.5707964	1.5707964	1.5707964	3.1415927	4.712389	0.024806965	-0.9926408	0	-0.1625895	0.97964925	0	0.0001220618	0.99967927	0	-0.9681892	-0.22186807	0	0.13629077	-0.9833019	0	0.66	100	2e-09
0	0.21647185	0.02553476	0	-2.1830496e-17	-2.5847713e-17	1.5707964	1.5707964	1.5707964	4.712389	0	0.019254467	-0.99269813	0	0.099415146	0.98828644	0	3.5660956e-05	0.9996795	0	-0.021496626	-0.992452	0	0.98515064	0.124857925	0	0.66	100	2e-09
0	0.07198335	0.19335528	0	-2.1817646e-17	-2.5847718e-17	1.5707964	1.5707964	1.5707964	4.712389	1.5707964	0.035115343	-0.9922731	0	0.19397807	0.97457725	0	0.00018302495	0.99967974	0	-0.053816065	-0.99126244	0	0.18445642	0.976055	0	0.66	100	2e-09
0	-0.22526471	0.032683756	0	-2.1717587e-17	-2.5847717e-17	1.5707964	1.5707964	1.5707964	4.712389	3.1415927	-0.038000453	-0.9922363	0	-0.022076242	0.99243224	0	0.00034525633	0.9996796	0	-0.085676394	-0.9890284	0	-0.9809157	0.15257162	0	0.66	100	2e-09
0	-0.0041138832	-0.19446178	0	-2.1743414e-17	-2.5847708e-17	1.5707964	1.5707964	1.5707964	4.712389	4.712389	-0.055027146	-0.9914406	0	-0.12565252	0.98493594	0	0.00013089375	0.99967927	0	-0.03595828	-0.99199694	0	0.19593763	-0.9734867	0	0.66	100	2e-09
0	0.00045907215	0.22145937	0	-2.1753902e-17	-2.5847745e-17	1.5707964	3.1415927	1.5707964	0	0	-0.992649	0.022898024	0	-0.9735452	0.1945664	0	0.00030224337	0.99968076	0	0.99082434	0.065532856	0	0.977363	-0.17538108	0	0.66	100	2e-09
0	-0.20230535	0.43675324	0	-2.1698982e-17	-2.5847746e-17	1.5707964	3.1415927	1.5707964	0	1.5707964	-0.9929136	0.0043108785	0	-0.98301274	0.13524365	0	0.00060766324	0.9996807	0	0.99156255	0.05245659	0	-0.027770704	0.9920744	0	0.66	100	2e-09
0	-0.3925452	0.1611897	0	-2.1773794e-17	-2.5847756e-17	1.5707964	3.1415927	1.5707964	0	3.1415927	-0.99264735	0.02500916	0	-0.98755705	-0.10241611	0	0.0006154856	0.99968123	0	0.98920053	0.08706761	0	-0.9723374	-0.20339331	0	0.66	100	2e-09
0	-0.20808427	0.024950568	0	-2.1811601e-17	-2.5847755e-17	1.5707964	3.1415927	1.5707964	0	4.712389	-0.99228764	0.03634843	0	-0.99273145	-0.012463379	0	0.0003764352	0.999681	0	0.9886847	0.0930368	0	-0.044463404	-0.9918501	0	0.66	100	2e-09
0	-0.17027782	0.45009488	0	-2.1750114e-17	-2.5847751e-17	1.5707964	3.1415927	1.5707964	1.5707964	0	-0.96493757	0.23465805	0	-0.96863	0.2190462	0	0.00014194535	0.99968094	0	0.107333064	0.98709863	0	0.97470343	-0.1900093	0	0.66	100	2e-09
0	-0.39260322	0.67114466	0	-2.1704842e-17	-2.5847755e-17	1.5707964	3.1415927	1.5707964	1.5707964	1.5707964	-0.9696971	0.21376729	0	-0.9792641	0.16176423	0	0.00045426292	0.999681	0	0.06136349	0.99087816	0	-0.07587253	0.9896327	0	0.66	100	2e-09
0	-0.57649493	0.3901593	0	-2.1792224e-17	-2.5847761e-17	1.5707964	3.1415927	1.5707964	1.5707964	3.1415927	-0.967967	0.22183856	0	-0.99095136	-0.061837494	0	0.00046717614	0.9996815	0	0.04894677	0.99158967	0	-0.9729704	-0.20047574	0	0.66	100	2e-09
0	-0.38989598	0.25004116	0	-2.1821122e-17	-2.5847756e-17	1.5707964	3.1415927	1.5707964	1.5707964	4.712389	-0.96473026	0.23570023	0	-0.9927682	0.015480674	0	0.00023205587	0.99968123	0	0.08390567	0.98932856	0	-0.07611894	-0.9899849	0	0.66	100	2e-09
0	-0.38996008	0.24723123	0	-2.1684136e-17	-2.5847741e-17	1.5707964	3.1415927	1.5707964	3.1415927	0	-0.9923019	0.015223201	0	-0.94984883	0.2920335	0	0.0003162512	0.99968064	0	-0.98943985	0.079084426	0	0.9814739	-0.14986554	0	0.66	100	2e-09
0	-0.6103852	0.4522544	0	-2.1660972e-17	-2.5847745e-17	1.5707964	3.1415927	1.5707964	3.1415927	1.5707964	-0.99238425	-0.009341669	0	-0.9666055	0.22702146	0	0.0006370603	0.99968064	0	-0.9909547	0.056520775	0	-0.10261815	0.9873909	0	0.66	100	2e-09
0	-0.7905423	0.18697256	0	-2.1743169e-17	-2.5847755e-17	1.5707964	3.1415927	1.5707964	3.1415927	3.1415927	-0.99230355	0.016370093	0	-0.9927893	-0.012913846	0	0.0006564345	0.999681	0	-0.98825496	0.09347085	0	-0.9800202	-0.16174544	0	0.66	100	2e-09
0	-0.61502945	0.04294853	0	-2.1755978e-17	-2.5847751e-17	1.5707964	3.1415927	1.5707964	3.1415927	4.712389	-0.99188966	0.033102173	0	-0.9912236	0.05833506	0	0.0004156698	0.99968094	0	-0.98649013	0.1109345	0	-0.10595974	-0.98731005	0	0.66	100	2e-09
0	-0.16480917	-0.014684648	0	-2.1709913e-17	-2.5847733e-17	1.5707964	3.1415927	1.5707964	4.712389	0	-0.96965176	-0.21597822	0	-0.95780474	0.26318207	0	0.0005033623	0.99968034	0	0.1192872	-0.9856535	0	0.9836202	-0.1346538	0	0.66	100	2e-09
0	-0.3835671	0.19363455	0	-2.1674124e-17	-2.5847733e-17	1.5707964	3.1415927	1.5707964	4.712389	1.5707964	-0.9654039	-0.23479429	0	-0.9717295	0.20236015	0	0.00081128196	0.99968034	0	0.06505887	-0.99056554	0	-0.04657222	0.99149215	0	0.66	100	2e-09
0	-0.57731706	-0.083189435	0	-2.1741422e-17	-2.5847746e-17	1.5707964	3.1415927	1.5707964	4.712389	3.1415927	-0.9716015	-0.20680366	0	-0.99116606	-0.05694137	0	0.0008401031	0.9996807	0	0.05548348	-0.9911154	0	-0.9801409	-0.16076753	0	0.66	100	2e-09
0	-0.386122	-0.22949119	0	-2.176432e-17	-2.5847745e-17	1.5707964	3.1415927	1.5707964	4.712389	4.712389	-0.97397923	-0.1949339	0	-0.99246836	0.026242115	0	0.000594439	0.9996807	0	0.10021266	-0.9876991	0	-0.06496956	-0.9907458	0	0.66	100	2e-09
0	0.00042077218	0.22139192	0	-2.1753905e-17	-2.5847746e-17	1.5707964	4.712389	1.5707964	0	0	-0.99264276	0.02317061	0	-0.9736176	0.19419676	0	0.00030218618	0.9996807	0	0.99080175	0.06588237	0	0.9772604	-0.17597091	0	0.66	100	2e-09
0	-0.2022972	0.43675748	0	-2.1698982e-17	-2.5847746e-17	1.5707964	4.712389	1.5707964	0	1.5707964	-0.9929136	0.004307964	0	-0.98300934	0.13526756	0	0.0006076511	0.9996807	0	0.99156266	0.05245578	0	-0.027733319	0.9920753	0	0.66	100	2e-09
0	-0.3925452	0.16119502	0	-2.1773794e-17	-2.5847756e-17	1.5707964	4.712389	1.5707964	0	3.1415927	-0.99264723	0.025014887	0	-0.98755825	-0.10240396	0	0.00061547593	0.9996812	0	0.98919845	0.08709215	0	-0.9723342	-0.2034092	0	0.66	100	2e-09
0	-0.20808281	0.02494843	0	-2.1811601e-17	-2.5847755e-17	1.5707964	4.712389	1.5707964	0	4.712389	-0.9922876	0.03635068	0	-0.9927312	-0.012477278	0	0.00037643695	0.99968106	0	0.98868465	0.09303809	0	-0.04445629	-0.9918504	0	0.66	100	2e-09
0	-0.17027849	0.45009354	0	-2.1750114e-17	-2.584775e-17	1.5707964	4.712389	1.5707964	1.5707964	0	-0.96493906	0.23465183	0	-0.96863085	0.21904187	0	0.0001419496	0.9996809	0	0.10733152	0.9870987	0	0.9747041	-0.19000588	0	0.66	100	2e-09
0	-0.39261478	0.6711391	0	-2.1704844e-17	-2.5847755e-17	1.5707964	4.712389	1.5707964	1.5707964	1.5707964	-0.96969664	0.21376957	0	-0.97926843	0.16173758	0	0.00045427776	0.99968106	0	0.061358564	0.9908786	0	-0.0759216	0.98962903	0	0.66	100	2e-09
0	-0.5764902	0.3901518	0	-2.1792224e-17	-2.5847765e-17	1.5707964	4.712389	1.5707964	1.5707964	3.1415927	-0.96796423	0.2218507	0	-0.9909519	-0.061829988	0	0.00046716104	0.9996815	0	0.048956536	0.99158925	0	-0.972959	-0.20053236	0	0.66	100	2e-09
0	-0.389894	0.2500491	0	-2.1821124e-17	-2.584776e-17	1.5707964	4.712389	1.5707964	1.5707964	4.712389	-0.96472824	0.2357092	0	-0.9927677	0.01551186	0	0.00023204218	0.99968123	0	0.083901905	0.9893289	0	-0.076108	-0.98998576	0	0.66	100	2e-09
0	-0.38996044	0.24723938	0	-2.1684136e-17	-2.5847745e-17	1.5707964	4.712389	1.5707964	3.1415927	0	-0.9923016	0.01524707	0	-0.9498504	0.29202825	0	0.0003162348	0.99968064	0	-0.9894358	0.07913831	0	0.98146915	-0.14989728	0	0.66	100	2e-09
0	-0.61038697	0.45225194	0	-2.1660975e-17	-2.5847745e-17	1.5707964	4.712389	1.5707964	3.1415927	1.5707964	-0.99238425	-0.009344056	0	-0.9666065	0.22701672	0	0.00063706486	0.99968064	0	-0.9909549	0.056516476	0	-0.10262615	0.9873901	0	0.66	100	2e-09
0	-0.7905425	0.18698198	0	-2.1743172e-17	-2.5847751e-17	1.5707964	4.712389	1.5707964	3.1415927	3.1415927	-0.9923034	0.016375616	0	-0.9927894	-0.012907086	0	0.0006564318	0.999681	0	-0.98825324	0.09348807	0	-0.980023	-0.16172786	0	0.66	100	2e-09
0	-0.615016	0.04292493	0	-2.175598e-17	-2.5847755e-17	1.5707964	4.712389	1.5707964	3.1415927	4.712389	-0.99189126	0.033052567	0	-0.9912217	0.05836641	0	0.00041567883	0.99968094	0	-0.98650014	0.11084275	0	-0.10588289	-0.987318	0	0.66	100	2e-09
0	-0.16480571	-0.014687883	0	-2.1709913e-17	-2.5847732e-17	1.5707964	4.712389	1.5707964	4.712389	0	-0.9696465	-0.21600309	0	-0.9577986	0.26320538	0	0.0005033602	0.99968034	0	0.119294934	-0.9856527	0	0.98361826	-0.13466936	0	0.66	100	2e-09
0	-0.38357702	0.19362801	0	-2.1674122e-17	-2.5847733e-17	1.5707964	4.712389	1.5707964	4.712389	1.5707964	-0.96540636	-0.23478396	0	-0.97173816	0.2023188	0	0.0008112995	0.9996802	0	0.0650612	-0.9905653	0	-0.046613086	0.9914903	0	0.66	100	2e-09