# t (s)	mx ()	my ()	mz ()	E_total (J)	E_Zeeman (J)	a1 (rad)	a2 (rad)	a3 (rad)	a4 (rad)	a5 (rad)	a6 (rad)	a7 (rad)	m.region1x ()	m.region1y ()	m.region1z ()	m.region2x ()	m.region2y ()	m.region2z ()	m.region3x ()	m.region3y ()	m.region3z ()	m.region4x ()	m.region4y ()	m.region4z ()	m.region5x ()	m.region5y ()	m.region5z ()	m.region6x ()	m.region6y ()	m.region6z ()	m.region7x ()	m.region7y ()	m.region7z ()	roundness ()	size (m)	Cell_size (m)
0	0.83337325	0.23303872	0	-2.0059457e-17	-2.5847775e-17	0	0	1.5707964	0	0	0	0	0.99227613	-0.0135465115	0	0.97056305	0.21073471	0	-0.0006917672	0.999682	0	0.98767495	-0.09680942	0	0.92298836	0.37335265	0	0.9908201	-0.057035696	0	0.9699823	0.21489339	0	0.66	100	2e-09
0	0.720398	0.31976143	0	-2.007532e-17	-2.5847778e-17	0	0	1.5707964	0	0	0	1.5707964	0.9921805	-0.019515552	0	0.97252065	0.20143034	0	-0.0006434047	0.99968207	0	0.9863649	-0.109667875	0	0.96317387	0.24631557	0	0.99044603	-0.063292496	0	0.1387433	0.9833779	0	0.66	100	2e-09
0	0.56866163	0.19012046	0	-1.9970995e-17	-2.5847778e-17	0	0	1.5707964	0	0	0	3.1415927	0.9921677	-0.019798087	0	0.97645855	0.18109412	0	-0.00068800175	0.999682	0	0.98693347	-0.10417557	0	0.9909041	0.05655774	0	0.9910566	-0.052341413	0	-0.9562013	0.2698244	0	0.66	100	2e-09
0	0.73308265	0.040717173	0	-1.9938044e-17	-2.5847773e-17	0	0	1.5707964	0	0	0	4.712389	0.9923096	-0.009904427	0	0.97310233	0.19852802	0	-0.0007773153	0.99968183	0	0.9888945	-0.08292116	0	0.974393	0.1918397	0	0.9915341	-0.042213153	0	0.21212232	-0.9699907	0	0.66	100	2e-09
0	0.66642356	0.45849442	0	-2.0100512e-17	-2.5847778e-17	0	0	1.5707964	0	0	1.5707964	0	0.9883713	0.09039256	0	0.9651478	0.23470011	0	-0.000775635	0.999682	0	0.9534894	0.27855584	0	0.90949935	0.40615043	0	-0.1208138	0.98547167	0	0.97004634	0.21450828	0	0.66	100	2e-09
0	0.5519798	0.5443916	0	-2.0119228e-17	-2.5847778e-17	0	0	1.5707964	0	0	1.5707964	1.5707964	0.9887537	0.085979864	0	0.96725607	0.22576953	0	-0.00073146494	0.999682	0	0.95610774	0.26918903	0	0.9593362	0.26118127	0	-0.13312307	0.9839314	0	0.12625927	0.9850076	0	0.66	100	2e-09
0	0.4007838	0.41216004	0	-2.0020575e-17	-2.5847778e-17	0	0	1.5707964	0	0	1.5707964	3.1415927	0.9885937	0.08778089	0	0.97155017	0.20621584	0	-0.000779012	0.999682	0	0.9530468	0.2800389	0	0.990119	0.06817722	0	-0.13820505	0.983256	0	-0.95883876	0.25996965	0	0.66	100	2e-09
0	0.5633317	0.26240024	0	-1.9983296e-17	-2.5847773e-17	0	0	1.5707964	0	0	1.5707964	4.712389	0.9878154	0.09637462	0	0.9676482	0.22403005	0	-0.00086588546	0.99968183	0	0.9474027	0.2990406	0	0.9713736	0.20661321	0	-0.11886024	0.9857073	0	0.18880856	-0.9746459	0	0.66	100	2e-09
0	0.54603165	0.25160643	0	-2.0133316e-17	-2.5847778e-17	0	0	1.5707964	0	0	3.1415927	0	0.9923588	-0.010130882	0	0.96713305	0.22623582	0	-0.0006466778	0.9996819	0	0.989979	-0.07322651	0	0.89850867	0.43073615	0	-0.99216497	-0.03995172	0	0.96705395	0.22790006	0	0.66	100	2e-09
0	0.43344703	0.33412725	0	-2.015625e-17	-2.5847778e-17	0	0	1.5707964	0	0	3.1415927	1.5707964	0.9923048	-0.014621702	0	0.96894956	0.21827255	0	-0.00060578634	0.9996821	0	0.98933643	-0.081705704	0	0.95570236	0.27458575	0	-0.99204475	-0.043031886	0	0.12048646	0.9857095	0	0.66	100	2e-09
0	0.2852473	0.20549369	0	-2.0056329e-17	-2.5847775e-17	0	0	1.5707964	0	0	3.1415927	3.1415927	0.9922924	-0.014977194	0	0.9728817	0.19976501	0	-0.0006511079	0.99968207	0	0.9896888	-0.07707708	0	0.98870265	0.086678624	0	-0.99238247	-0.034109816	0	-0.953801	0.27849436	0	0.66	100	2e-09
0	0.44464254	0.05270114	0	-2.001228e-17	-2.5847775e-17	0	0	1.5707964	0	0	3.1415927	4.712389	0.99237645	-0.007086004	0	0.96941465	0.21613878	0	-0.0007374723	0.9996819	0	0.99069744	-0.06224197	0	0.9671606	0.22609042	0	-0.99254465	-0.028566107	0	0.18613075	-0.975109	0	0.66	100	2e-09
0	0.5284871	-0.038658246	0	-2.0241679e-17	-2.5847773e-17	0	0	1.5707964	0	0	4.712389	0	0.95980066	-0.2551644	0	0.9603697	0.2542861	0	-0.0004185024	0.99968183	0	-0.05538986	-0.9911713	0	0.8708176	0.48600203	0	-0.002689997	-0.9927239	0	0.96691984	0.2284818	0	0.66	100	2e-09
0	0.4177865	0.040496018	0	-2.0264873e-17	-2.5847775e-17	0	0	1.5707964	0	0	4.712389	1.5707964	0.9590996	-0.25782165	0	0.9616892	0.24923334	0	-0.00038751715	0.99968183	0	-0.056958884	-0.9910908	0	0.95112044	0.2904558	0	-0.010770283	-0.9926704	0	0.120712996	0.9856841	0	0.66	100	2e-09
0	0.26812515	-0.08937811	0	-2.016405e-17	-2.5847773e-17	0	0	1.5707964	0	0	4.712389	3.1415927	0.95787257	-0.26239896	0	0.9656225	0.2333047	0	-0.00043105596	0.99968183	0	-0.06599321	-0.99054116	0	0.9871956	0.10221493	0	-0.015359992	-0.9926044	0	-0.9520303	0.28469634	0	0.66	100	2e-09
0	0.42975008	-0.24560897	0	-2.0118821e-17	-2.584777e-17	0	0	1.5707964	0	0	4.712389	4.712389	0.9591972	-0.25745976	0	0.96181846	0.24870484	0	-0.0005133349	0.9996818	0	-0.062138427	-0.990771	0	0.9619491	0.24774897	0	-0.0016715754	-0.9927195	0	0.1896092	-0.9744482	0	0.66	100	2e-09
0	0.55142087	0.101878315	0	-2.0200316e-17	-2.584778e-17	0	0	1.5707964	0	1.5707964	0	0	0.9627437	-0.2436577	0	0.97695047	0.17866518	0	-0.00031117737	0.9996821	0	-0.18408065	-0.9760672	0	0.18577921	0.976175	0	0.9332481	-0.3429177	0	0.985616	0.121268526	0	0.66	100	2e-09
0	0.45477563	0.21706653	0	-2.0180585e-17	-2.5847783e-17	0	0	1.5707964	0	1.5707964	0	1.5707964	0.9617873	-0.24746646	0	0.97626996	0.18244898	0	-0.0002571531	0.9996823	0	-0.18419664	-0.9760528	0	0.2906406	0.9511521	0	0.92662126	-0.36077115	0	0.21256427	0.9704729	0	0.66	100	2e-09
0	0.25631037	0.10505458	0	-2.0068492e-17	-2.584778e-17	0	0	1.5707964	0	1.5707964	0	3.1415927	0.95990694	-0.2547502	0	0.98238915	0.14496142	0	-0.00024460827	0.9996821	0	-0.20749007	-0.9715133	0	0.10335468	0.98719513	0	0.9344164	-0.33957106	0	-0.9781598	0.16937798	0	0.66	100	2e-09
0	0.41681004	-0.052580863	0	-2.010536e-17	-2.584778e-17	0	0	1.5707964	0	1.5707964	0	4.712389	0.9616001	-0.24818039	0	0.982509	0.14405943	0	-0.0003285048	0.9996821	0	-0.20416366	-0.9721861	0	-0.0069381488	0.99237454	0	0.9408467	-0.32094193	0	0.24414486	-0.9628737	0	0.66	100	2e-09
0	0.42207873	0.29798406	0	-2.009491e-17	-2.5847783e-17	0	0	1.5707964	0	1.5707964	1.5707964	0	0.97003204	-0.2123478	0	0.9743338	0.19273686	0	-0.00034359674	0.9996821	0	-0.13241963	-0.9841883	0	0.16462466	0.9798652	0	-0.0077334326	0.9927304	0	0.9860572	0.11740993	0	0.66	100	2e-09
0	0.32027665	0.41724443	0	-2.007775e-17	-2.584778e-17	0	0	1.5707964	0	1.5707964	1.5707964	1.5707964	0.9693032	-0.21571383	0	0.97373885	0.19580282	0	-0.00028783237	0.9996821	0	-0.1324558	-0.9841924	0	0.26355058	0.958784	0	-0.027417194	0.99238986	0	0.1955047	0.9739586	0	0.66	100	2e-09
0	0.11961931	0.29864126	0	-1.9974481e-17	-2.5847783e-17	0	0	1.5707964	0	1.5707964	1.5707964	3.1415927	0.9677873	-0.22250684	0	0.98041666	0.1580261	0	-0.00027626884	0.9996823	0	-0.16287057	-0.9797614	0	0.07388199	0.98970574	0	-0.040853944	0.99195135	0	-0.98074996	0.1533918	0	0.66	100	2e-09
0	0.28043976	0.13933618	0	-2.0006475e-17	-2.584778e-17	0	0	1.5707964	0	1.5707964	1.5707964	4.712389	0.9690641	-0.21677354	0	0.98051405	0.15734738	0	-0.00035981715	0.9996821	0	-0.15971549	-0.9802525	0	-0.030550456	0.991913	0	-0.012330296	0.99269587	0	0.21645644	-0.96925896	0	0.66	100	2e-09
0	0.3099652	0.10259152	0	-2.0207544e-17	-2.584778e-17	0	0	1.5707964	0	1.5707964	3.1415927	0	0.9617939	-0.24739605	0	0.97603834	0.18370433	0	-0.00027440878	0.9996821	0	0.008249323	-0.99244213	0	0.17589717	0.97796905	0	-0.93637484	-0.33403116	0	0.984427	0.13065447	0	0.66	100	2e-09
0	0.20959122	0.2203177	0	-2.0194963e-17	-2.584778e-17	0	0	1.5707964	0	1.5707964	3.1415927	1.5707964	0.9609134	-0.2508507	0	0.9755063	0.1865861	0	-0.00021961426	0.9996821	0	0.00483096	-0.992483	0	0.2737249	0.95602727	0	-0.9371271	-0.3318455	0	0.18950982	0.97510755	0	0.66	100	2e-09
0	0.013503345	0.10769788	0	-2.0089262e-17	-2.5847783e-17	0	0	1.5707964	0	1.5707964	3.1415927	3.1415927	0.9587434	-0.25911644	0	0.981616	0.15025052	0	-0.00020807562	0.9996823	0	-0.014466265	-0.99239177	0	0.09152624	0.9883069	0	-0.94532925	-0.30699497	0	-0.9773585	0.1741487	0	0.66	100	2e-09
0	0.16985309	-0.055081848	0	-2.0115004e-17	-2.584778e-17	0	0	1.5707964	0	1.5707964	3.1415927	4.712389	0.9602974	-0.25320348	0	0.9818172	0.14883788	0	-0.00029130137	0.9996822	0	-0.007931562	-0.99243486	0	-0.017677719	0.99221796	0	-0.94390464	-0.31148142	0	0.21666218	-0.9691912	0	0.66	100	2e-09
0	0.43172485	0.0049477657	0	-2.02802e-17	-2.584778e-17	0	0	1.5707964	0	1.5707964	4.712389	0	0.9574539	-0.26387402	0	0.97742385	0.17600895	0	-0.00026633803	0.9996821	0	-0.07435097	-0.9899678	0	0.18810633	0.97575104	0	-0.010855172	-0.99265885	0	0.9845624	0.12969285	0	0.66	100	2e-09
0	0.33283702	0.12189582	0	-2.0264578e-17	-2.5847783e-17	0	0	1.5707964	0	1.5707964	4.712389	1.5707964	0.95648503	-0.26741603	0	0.97678113	0.17963795	0	-0.0002126972	0.9996823	0	-0.075676754	-0.9898815	0	0.2903638	0.9512473	0	-0.020646634	-0.9925074	0	0.2027654	0.9725084	0	0.66	100	2e-09
0	0.13524128	0.0075641503	0	-2.0153169e-17	-2.5847783e-17	0	0	1.5707964	0	1.5707964	4.712389	3.1415927	0.9538339	-0.2768185	0	0.982661	0.14309901	0	-0.0001988181	0.9996822	0	-0.09228512	-0.98851013	0	0.108535744	0.98666495	0	-0.029745579	-0.99227047	0	-0.97611207	0.18110198	0	0.66	100	2e-09
0	0.29555246	-0.15468886	0	-2.0183864e-17	-2.5847783e-17	0	0	1.5707964	0	1.5707964	4.712389	4.712389	0.9556232	-0.2704925	0	0.9828686	0.14156446	0	-0.00028244496	0.99968207	0	-0.088654414	-0.9888159	0	-0.003484819	0.9923851	0	-0.014371722	-0.9926046	0	0.23716903	-0.96454066	0	0.66	100	2e-09
0	0.5514192	0.101884834	0	-2.0200321e-17	-2.5847778e-17	0	0	1.5707964	0	3.1415927	0	0	0.96274877	-0.24363741	0	0.9769536	0.17864843	0	-0.00031118243	0.9996821	0	-0.1840968	-0.97606426	0	0.18574615	0.9761811	0	0.9332735	-0.34284696	0	0.9856204	0.121230856	0	0.66	100	2e-09
0	0.45477596	0.21707188	0	-2.0180583e-17	-2.5847783e-17	0	0	1.5707964	0	3.1415927	0	1.5707964	0.9617877	-0.24746464	0	0.9762701	0.18244833	0	-0.00025715472	0.9996821	0	-0.18420094	-0.9760521	0	0.29063767	0.95115304	0	0.92663413	-0.36073738	0	0.21256042	0.97047365	0	0.66	100	2e-09
0	0.2563108	0.10505957	0	-2.0068489e-17	-2.5847783e-17	0	0	1.5707964	0	3.1415927	0	3.1415927	0.9599075	-0.2547481	0	0.98238933	0.14496017	0	-0.0002446092	0.9996821	0	-0.2074948	-0.97151244	0	0.103350565	0.98719555	0	0.9344271	-0.33954096	0	-0.9781595	0.16938049	0	0.66	100	2e-09
0	0.4168162	-0.0525867	0	-2.010536e-17	-2.5847783e-17	0	0	1.5707964	0	3.1415927	0	4.712389	0.96159947	-0.24818295	0	0.9825092	0.14405888	0	-0.00032850317	0.9996821	0	-0.20415492	-0.97218794	0	-0.006932341	0.99237466	0	0.9408311	-0.32098895	0	0.24418943	-0.9628629	0	0.66	100	2e-09
0	0.42208147	0.29798636	0	-2.009491e-17	-2.5847783e-17	0	0	1.5707964	0	3.1415927	1.5707964	0	0.97003233	-0.21234626	0	0.9743331	0.19274087	0	-0.0003435989	0.9996822	0	-0.13242565	-0.9841875	0	0.16463345	0.97986376	0	-0.0077154986	0.9927305	0	0.98605597	0.11742104	0	0.66	100	2e-09
0	0.32027006	0.41724566	0	-2.0077753e-17	-2.5847783e-17	0	0	1.5707964	0	3.1415927	1.5707964	1.5707964	0.96930337	-0.2157123	0	0.9737401	0.19579652	0	-0.00028782873	0.9996823	0	-0.13247186	-0.9841904	0	0.263535	0.9587881	0	-0.027399966	0.99239045	0	0.19547161	0.97396517	0	0.66	100	2e-09
0	0.11963302	0.29864138	0	-1.9974478e-17	-2.5847783e-17	0	0	1.5707964	0	3.1415927	1.5707964	3.1415927	0.96779186	-0.22248676	0	0.98041016	0.15806758	0	-0.00027630135	0.9996823	0	-0.16291526	-0.9797542	0	0.073990114	0.989698	0	-0.040810175	0.9919531	0	-0.9807593	0.1533298	0	0.66	100	2e-09
0	0.2804306	0.13933393	0	-2.000648e-17	-2.584778e-17	0	0	1.5707964	0	3.1415927	1.5707964	4.712389	0.96906364	-0.21677506	0	0.9805145	0.15734392	0	-0.00035981418	0.9996822	0	-0.15970847	-0.98025364	0	-0.030561168	0.9919128	0	-0.012348637	0.9926956	0	0.21641393	-0.96926826	0	0.66	100	2e-09
0	0.30996606	0.10258775	0	-2.020754e-17	-2.584778e-17	0	0	1.5707964	0	3.1415927	3.1415927	0	0.9617936	-0.2473974	0	0.97603834	0.1837039	0	-0.0002744078	0.9996821	0	0.008247681	-0.9924421	0	0.17589676	0.97796905	0	-0.9363666	-0.33405486	0	0.9844271	0.1306535	0	0.66	100	2e-09
0	0.20956677	0.22031926	0	-2.0194961e-17	-2.5847783e-17	0	0	1.5707964	0	3.1415927	3.1415927	1.5707964	0.9609132	-0.2508515	0	0.97551054	0.18656316	0	-0.00021959736	0.9996821	0	0.0048239366	-0.99248314	0	0.27366933	0.9560426	0	-0.9371265	-0.33184743	0	0.1893964	0.975129	0	0.66	100	2e-09
0	0.013503027	0.10770195	0	-2.008926e-17	-2.5847783e-17	0	0	1.5707964	0	3.1415927	3.1415927	3.1415927	0.9587438	-0.25911504	0	0.98161626	0.15024877	0	-0.00020807513	0.9996822	0	-0.014465985	-0.9923917	0	0.091524765	0.98830706	0	-0.9453336	-0.30698153	0	-0.97735596	0.17416391	0	0.66	100	2e-09
0	0.16983281	-0.055083755	0	-2.011501e-17	-2.5847778e-17	0	0	1.5707964	0	3.1415927	3.1415927	4.712389	0.960297	-0.25320494	0	0.981819	0.14882569	0	-0.00029129442	0.9996821	0	-0.007934985	-0.99243486	0	-0.017712314	0.99221724	0	-0.94391173	-0.31145924	0	0.21656403	-0.96921235	0	0.66	100	2e-09
0	0.43172643	0.0049508614	0	-2.0280197e-17	-2.5847778e-17	0	0	1.5707964	0	3.1415927	4.712389	0	0.95745504	-0.2638704	0	0.97742283	0.17601506	0	-0.00026634158	0.9996821	0	-0.074354485	-0.9899676	0	0.1881216	0.9757482	0	-0.010853998	-0.99265885	0	0.98456055	0.12970738	0	0.66	100	2e-09
0	0.33283752	0.121895686	0	-2.0264573e-17	-2.5847778e-17	0	0	1.5707964	0	3.1415927	4.712389	1.5707964	0.9564858	-0.26741314	0	0.9767817	0.17963436	0	-0.00021269722	0.9996821	0	-0.07567641	-0.9898815	0	0.29035905	0.9512487	0	-0.020647923	-0.9925074	0	0.20277333	0.9725067	0	0.66	100	2e-09
0	0.13524245	0.0075666746	0	-2.015317e-17	-2.5847783e-17	0	0	1.5707964	0	3.1415927	4.712389	3.1415927	0.953834	-0.27681822	0	0.98266095	0.14309938	0	-0.00019881764	0.9996821	0	-0.092284866	-0.9885102	0	0.10854037	0.9866644	0	-0.029745648	-0.99227047	0	-0.97610897	0.18111952	0	0.66	100	2e-09
0	0.29556248	-0.15468597	0	-2.0183859e-17	-2.584778e-17	0	0	1.5707964	0	3.1415927	4.712389	4.712389	0.9556237	-0.27049112	0	0.9828677	0.14157127	0	-0.00028244918	0.9996821	0	-0.08865296	-0.9888161	0	-0.0034670352	0.99238527	0	-0.0143710645	-0.9926047	0	0.23721956	-0.9645286	0	0.66	100	2e-09
0	-0.25232515	0.17223284	0	-2.0032422e-17	-2.5847816e-17	0	0	1.5707964	0	4.712389	0	0	0.9655643	0.23298468	0	0.06999001	-0.99028724	0	0.00034103802	0.99968344	0	-0.9332745	0.34470025	0	-0.9775184	-0.17774408	0	0.08307039	0.9893014	0	-0.9744489	-0.1930085	0	0.66	100	2e-09
0	-0.118567266	0.37039948	0	-1.9940153e-17	-2.5847818e-17	0	0	1.5707964	0	4.712389	0	1.5707964	0.9690431	0.2178755	0	0.15039739	-0.9815905	0	0.00037449444	0.9996836	0	-0.9398964	0.32547835	0	-0.9908743	0.05535007	0	0.08630186	0.9890179	0	-0.105317116	0.9869814	0	0.66	100	2e-09
0	-0.25228366	0.1718054	0	-2.0032425e-17	-2.5847813e-17	0	0	1.5707964	0	4.712389	0	3.1415927	0.9658864	0.23161304	0	0.07061382	-0.9902438	0	0.00034145213	0.99968344	0	-0.9340082	0.3426352	0	-0.9775733	-0.17743042	0	0.083222345	0.9892888	0	-0.9744682	-0.19290845	0	0.66	100	2e-09
0	-0.12541415	0.07628609	0	-2.00545e-17	-2.5847816e-17	0	0	1.5707964	0	4.712389	0	4.712389	0.96311164	0.24316505	0	0.07631889	-0.9898363	0	0.00027674952	0.99968344	0	-0.92683506	0.36225024	0	-0.989832	-0.081210144	0	0.09437897	0.9883203	0	-0.0953182	-0.98837006	0	0.66	100	2e-09
0	0.04017721	0.22093245	0	-1.9978068e-17	-2.5847818e-17	0	0	1.5707964	0	4.712389	1.5707964	0	0.9655094	0.23339763	0	0.15202497	-0.98134255	0	0.0002796365	0.9996835	0	-0.93074477	0.351672	0	-0.9820737	0.14535728	0	0.10154438	0.98761845	0	0.97470045	-0.18985903	0	0.66	100	2e-09
0	-0.11836069	0.37040138	0	-1.9940152e-17	-2.5847818e-17	0	0	1.5707964	0	4.712389	1.5707964	1.5707964	0.96912885	0.21748513	0	0.15101907	-0.9814981	0	0.00037433827	0.9996835	0	-0.94007796	0.32493398	0	-0.99083066	0.056121808	0	0.086339675	0.9890146	0	-0.104478	0.98706865	0	0.66	100	2e-09
0	-0.25228366	0.17180298	0	-2.0032425e-17	-2.5847816e-17	0	0	1.5707964	0	4.712389	1.5707964	3.1415927	0.9658881	0.23160651	0	0.07061514	-0.9902438	0	0.00034145525	0.99968344	0	-0.9340119	0.34262463	0	-0.97757334	-0.17742999	0	0.08322335	0.9892887	0	-0.9744682	-0.19290872	0	0.66	100	2e-09
0	-0.12541412	0.07630335	0	-2.00545e-17	-2.5847816e-17	0	0	1.5707964	0	4.712389	1.5707964	4.712389	0.96310055	0.24321029	0	0.07630457	-0.9898374	0	0.00027673083	0.99968344	0	-0.9268045	0.3623314	0	-0.9898316	-0.08121515	0	0.09437169	0.9883211	0	-0.09531631	-0.98837024	0	0.66	100	2e-09
0	-0.11212753	0.027228257	0	-1.9926445e-17	-2.5847813e-17	0	0	1.5707964	0	4.712389	3.1415927	0	0.9862739	0.11369574	0	0.21069553	-0.97077906	0	0.00037678983	0.9996835	0	-0.99223375	0.023243692	0	-0.97598416	0.18290314	0	-0.9923771	0.011236544	0	0.97835594	-0.16938569	0	0.66	100	2e-09
0	-0.2696876	0.17453279	0	-1.989633e-17	-2.5847816e-17	0	0	1.5707964	0	4.712389	3.1415927	1.5707964	0.9874471	0.10271428	0	0.20507127	-0.97195274	0	0.000470404	0.99968344	0	-0.9924852	0.007994057	0	-0.98824984	0.09166646	0	-0.99243766	0.0048407717	0	-0.10762907	0.98678297	0	0.66	100	2e-09
0	-0.40575892	-0.020956622	0	-1.9984384e-17	-2.5847811e-17	0	0	1.5707964	0	4.712389	3.1415927	3.1415927	0.98634744	0.11282327	0	0.11655748	-0.9860085	0	0.00044636178	0.99968326	0	-0.9920739	0.029998798	0	-0.98191315	-0.15062796	0	-0.99217427	0.023972072	0	-0.9775025	-0.17653741	0	0.66	100	2e-09
0	-0.28128055	-0.12019404	0	-2.0000883e-17	-2.5847813e-17	0	0	1.5707964	0	4.712389	3.1415927	4.712389	0.98544085	0.120679595	0	0.12328621	-0.98521453	0	0.0003821089	0.9996833	0	-0.9916995	0.04044972	0	-0.991428	-0.05748492	0	-0.99206	0.02815906	0	-0.10288545	-0.98763055	0	0.66	100	2e-09
0	0.055845063	-0.17168106	0	-1.9972196e-17	-2.5847811e-17	0	0	1.5707964	0	4.712389	4.712389	0	0.992496	0.014107893	0	0.24101083	-0.963954	0	0.00043199296	0.9996833	0	-0.95200217	-0.28644657	0	-0.97574484	0.1839938	0	0.10513186	-0.98724115	0	0.9795919	-0.16191074	0	0.66	100	2e-09
0	-0.1008151	-0.024001071	0	-1.9937354e-17	-2.5847811e-17	0	0	1.5707964	0	4.712389	4.712389	1.5707964	0.9925822	0.003857451	0	0.23448674	-0.96551937	0	0.00052514806	0.99968326	0	-0.9480365	-0.29973882	0	-0.98800933	0.093667254	0	0.0871621	-0.98893756	0	-0.084416	0.9889803	0	0.66	100	2e-09
0	-0.24143688	-0.22473367	0	-2.0019847e-17	-2.5847808e-17	0	0	1.5707964	0	4.712389	4.712389	3.1415927	0.9925303	0.01037195	0	0.14204495	-0.9827807	0	0.0005056314	0.9996832	0	-0.95543075	-0.2744788	0	-0.98037004	-0.16047746	0	0.088136636	-0.9888473	0	-0.9774749	-0.17660658	0	0.66	100	2e-09
0	-0.113102406	-0.32411578	0	-2.004008e-17	-2.5847811e-17	0	0	1.5707964	0	4.712389	4.712389	4.712389	0.992431	0.01774393	0	0.15032177	-0.9815857	0	0.00044101122	0.9996832	0	-0.95769507	-0.26618633	0	-0.9911439	-0.061870057	0	0.10186987	-0.9875667	0	-0.08794149	-0.98902875	0	0.66	100	2e-09
0	0.41468015	0.3699106	0	-2.0023382e-17	-2.584783e-17	0	0	1.5707964	1.5707964	0	0	0	-0.0081653595	0.99289954	0	0.011086679	-0.9921555	0	-0.0003438064	0.9996841	0	-0.010711061	0.9924289	0	0.9848127	0.1234501	0	0.9485952	0.2964663	0	0.9774867	0.17660075	0	0.66	100	2e-09
0	0.28102	0.46803212	0	-2.004814e-17	-2.584783e-17	0	0	1.5707964	1.5707964	0	0	1.5707964	-0.013558152	0.9928345	0	-0.009527542	-0.9922711	0	-0.0002789997	0.9996841	0	-0.01675141	0.9923367	0	0.9921946	-0.008567938	0	0.9470018	0.30166113	0	0.06805942	0.990548	0	0.66	100	2e-09
0	-0.12155364	0.19059873	0	-2.015028e-17	-2.5847821e-17	0	0	1.5707964	1.5707964	0	0	3.1415927	-0.13034996	0.98437846	0	-0.37818974	-0.9209787	0	-8.3813575e-05	0.9996836	0	-0.054936267	0.9910847	0	-0.22608015	-0.9679238	0	0.92478806	0.3655369	0	-0.9860238	-0.11759001	0	0.66	100	2e-09
0	-0.029858677	0.074372515	0	-2.013574e-17	-2.5847818e-17	0	0	1.5707964	1.5707964	0	0	4.712389	-0.1379027	0.98336005	0	-0.4036854	-0.9104803	0	-0.00011894649	0.9996835	0	-0.052872885	0.99121207	0	-0.35456866	-0.9300874	0	0.92586434	0.36272106	0	-0.18572645	-0.97580165	0	0.66	100	2e-09
0	0.049287613	0.27389023	0	-2.0102555e-17	-2.5847818e-17	0	0	1.5707964	1.5707964	0	1.5707964	0	-0.122113265	0.9854303	0	-0.4017393	-0.9112798	0	-0.00012585522	0.9996836	0	0.040308047	0.9919015	0	-0.17630102	-0.97707075	0	0.02592498	0.99237967	0	0.97905964	-0.16381298	0	0.66	100	2e-09
0	-0.09694193	0.4306598	0	-2.0136882e-17	-2.5847824e-17	0	0	1.5707964	1.5707964	0	1.5707964	1.5707964	-0.10932653	0.9869174	0	-0.3492899	-0.931885	0	-7.819812e-05	0.9996838	0	0.037729345	0.99198407	0	-0.041097965	-0.9915373	0	0.0109172035	0.9926513	0	-0.22744755	0.96680415	0	0.66	100	2e-09
0	-0.24546294	0.28169817	0	-2.0226823e-17	-2.5847821e-17	0	0	1.5707964	1.5707964	0	1.5707964	3.1415927	-0.12911056	0.9845482	0	-0.3914428	-0.9156136	0	-7.602331e-05	0.9996836	0	0.023593107	0.9924181	0	-0.24215423	-0.9641381	0	0.006971979	0.9926977	0	-0.9860219	-0.11770861	0	0.66	100	2e-09
0	-0.15773709	0.16770713	0	-2.020953e-17	-2.5847818e-17	0	0	1.5707964	1.5707964	0	1.5707964	4.712389	-0.13882223	0.98323876	0	-0.42572054	-0.90073586	0	-0.00010431196	0.9996835	0	0.023704292	0.9924269	0	-0.3810127	-0.9199252	0	0.016401233	0.9925904	0	-0.19860531	-0.97332877	0	0.66	100	2e-09
0	-0.06543134	0.18410917	0	-2.0016275e-17	-2.5847821e-17	0	0	1.5707964	1.5707964	0	3.1415927	0	-0.11387409	0.9864163	0	-0.3633769	-0.9266896	0	-0.00011104022	0.99968374	0	0.13150564	0.9840792	0	-0.1720848	-0.977803	0	-0.9209812	0.37515345	0	0.98090297	-0.15207592	0	0.66	100	2e-09
0	-0.21421868	0.33598584	0	-2.0056786e-17	-2.5847821e-17	0	0	1.5707964	1.5707964	0	3.1415927	1.5707964	-0.10348835	0.9875482	0	-0.3221411	-0.9412804	0	-5.7457997e-05	0.9996838	0	0.12925744	0.9843601	0	-0.03749584	-0.9916947	0	-0.9313889	0.3480268	0	-0.23421648	0.9652569	0	0.66	100	2e-09
0	-0.36006656	0.19285463	0	-2.0145416e-17	-2.5847821e-17	0	0	1.5707964	1.5707964	0	3.1415927	3.1415927	-0.12245077	0.9853981	0	-0.36127934	-0.92750406	0	-5.7150683e-05	0.9996836	0	0.11041792	0.9866098	0	-0.24077605	-0.9644671	0	-0.919326	0.3793591	0	-0.9869948	-0.1090974	0	0.66	100	2e-09
0	-0.15768926	0.16769165	0	-2.020953e-17	-2.5847816e-17	0	0	1.5707964	1.5707964	0	3.1415927	4.712389	-0.13873638	0.98325086	0	-0.42535228	-0.90090376	0	-0.00010448659	0.9996835	0	0.023705192	0.9924269	0	-0.3811333	-0.919877	0	0.016398557	0.9925905	0	-0.19860224	-0.9733293	0	0.66	100	2e-09
0	0.074335426	-0.010268059	0	-1.9915622e-17	-2.5847818e-17	0	0	1.5707964	1.5707964	0	4.712389	0	-0.11302553	0.98650557	0	-0.32894218	-0.9390306	0	-0.00011291773	0.99968374	0	0.06710333	0.99048126	0	-0.13296281	-0.98368126	0	0.044798847	-0.99177855	0	0.9834891	-0.1340564	0	0.66	100	2e-09
0	-0.07579005	0.14488332	0	-1.995179e-17	-2.5847824e-17	0	0	1.5707964	1.5707964	0	4.712389	1.5707964	-0.103403196	0.98754764	0	-0.29409295	-0.95011115	0	-5.5999302e-05	0.9996838	0	0.06426351	0.99065197	0	-0.007123167	-0.99236554	0	0.016133646	-0.9926384	0	-0.20625219	0.971415	0	0.66	100	2e-09
0	-0.22872338	-0.0040921597	0	-2.0033181e-17	-2.5847821e-17	0	0	1.5707964	1.5707964	0	4.712389	3.1415927	-0.12173795	0.98547643	0	-0.32966432	-0.9388134	0	-5.5644163e-05	0.99968374	0	0.04086862	0.9918768	0	-0.21298064	-0.9707973	0	0.010087743	-0.9927048	0	-0.98758143	-0.103366606	0	0.66	100	2e-09
0	-0.1348595	-0.12237985	0	-2.0013739e-17	-2.5847818e-17	0	0	1.5707964	1.5707964	0	4.712389	4.712389	-0.12891662	0.9845747	0	-0.35116282	-0.9312655	0	-9.379744e-05	0.9996836	0	0.04041451	0.9919055	0	-0.3421351	-0.93457	0	0.029645523	-0.9923206	0	-0.19176817	-0.97466683	0	0.66	100	2e-09
0	0.27415478	0.48033676	0	-2.0080451e-17	-2.5847839e-17	0	0	1.5707964	1.5707964	1.5707964	0	0	0.0023179152	0.992922	0	0.10170606	-0.9873404	0	-0.00017847618	0.99968433	0	-0.04885167	0.9913072	0	-0.064514905	0.9902487	0	0.9366534	0.33323565	0	0.99195135	0.042299647	0	0.66	100	2e-09
0	0.18265073	0.6143361	0	-2.004376e-17	-2.5847839e-17	0	0	1.5707964	1.5707964	1.5707964	0	1.5707964	0.011851986	0.99285907	0	0.13321666	-0.9836552	0	-0.00014045103	0.99968445	0	-0.05219292	0.99112105	0	0.052166056	0.99092156	0	0.93571985	0.33593035	0	0.19793405	0.97349095	0	0.66	100	2e-09
0	-0.32458085	0.36138913	0	-2.0221593e-17	-2.584783e-17	0	0	1.5707964	1.5707964	1.5707964	0	3.1415927	-0.10363946	0.9875295	0	-0.23871809	-0.9649446	0	7.114981e-06	0.999684	0	0.0031525074	0.9926751	0	-0.95754385	-0.26787978	0	-0.004334608	0.9927245	0	-0.9709894	-0.21006484	0	0.66	100	2e-09
0	-0.19995932	0.2655601	0	-2.024698e-17	-2.5847826e-17	0	0	1.5707964	1.5707964	1.5707964	0	4.712389	-0.101558946	0.98774546	0	-0.23344389	-0.9661633	0	-4.5653553e-05	0.99968386	0	0.0072508017	0.9926599	0	-0.9806413	-0.15944058	0	0.004995178	0.9927201	0	-0.09627161	-0.98828495	0	0.66	100	2e-09
0	-0.035966262	0.4033033	0	-2.0164443e-17	-2.5847834e-17	0	0	1.5707964	1.5707964	1.5707964	1.5707964	0	-0.07972778	0.98972774	0	-0.17456943	-0.97804993	0	-3.078729e-05	0.99968404	0	0.016260043	0.9925486	0	-0.9913481	0.046078738	0	0.009038121	0.99268407	0	0.96861404	-0.21954988	0	0.66	100	2e-09
0	-0.19387999	0.5608036	0	-2.0120737e-17	-2.5847834e-17	0	0	1.5707964	1.5707964	1.5707964	1.5707964	1.5707964	-0.079622105	0.9897329	0	-0.17282464	-0.97838414	0	5.1574483e-05	0.9996841	0	0.011079467	0.992609	0	-0.9908301	-0.055947866	0	-0.004564174	0.992715	0	-0.1204499	0.98521614	0	0.66	100	2e-09
0	-0.3244832	0.3614652	0	-2.0221593e-17	-2.584783e-17	0	0	1.5707964	1.5707964	1.5707964	1.5707964	3.1415927	-0.10332132	0.9875625	0	-0.23794238	-0.9651299	0	6.7464766e-06	0.999684	0	0.0032402321	0.9926749	0	-0.95767725	-0.26738578	0	-0.0046583666	0.99272305	0	-0.9710299	-0.20987228	0	0.66	100	2e-09
0	-0.19995676	0.26556158	0	-2.024698e-17	-2.584783e-17	0	0	1.5707964	1.5707964	1.5707964	1.5707964	4.712389	-0.10155363	0.987746	0	-0.23342851	-0.96616685	0	-4.5660872e-05	0.999684	0	0.007250356	0.99265987	0	-0.98064333	-0.15942702	0	0.004994797	0.9927202	0	-0.09627134	-0.988285	0	0.66	100	2e-09
0	-0.15216278	0.31990156	0	-2.0082142e-17	-2.584783e-17	0	0	1.5707964	1.5707964	1.5707964	3.1415927	0	-0.074950434	0.99009967	0	-0.15757477	-0.9808447	0	-4.045816e-06	0.9996841	0	0.10186165	0.98750216	0	-0.99053514	0.061599553	0	-0.9148141	0.39023995	0	0.9708775	-0.20896967	0	0.66	100	2e-09
0	-0.3110923	0.472063	0	-2.0043647e-17	-2.5847836e-17	0	0	1.5707964	1.5707964	1.5707964	3.1415927	1.5707964	-0.07528583	0.99007106	0	-0.15670629	-0.9810145	0	7.909854e-05	0.99968415	0	0.096484825	0.98802304	0	-0.991532	-0.041312348	0	-0.92527115	0.36435103	0	-0.12541488	0.98463845	0	0.66	100	2e-09
0	-0.4401485	0.2792243	0	-2.0142443e-17	-2.584783e-17	0	0	1.5707964	1.5707964	1.5707964	3.1415927	3.1415927	-0.09921894	0.98798174	0	-0.22237153	-0.9687207	0	3.414522e-05	0.999684	0	0.08503551	0.9890614	0	-0.9611181	-0.2543139	0	-0.91032416	0.4008388	0	-0.97307646	-0.19996135	0	0.66	100	2e-09
0	-0.19329588	-0.019181073	0	-2.0046348e-17	-2.5847829e-17	0	0	1.5707964	1.5707964	1.5707964	3.1415927	4.712389	-0.09957925	0.98793304	0	-0.20391788	-0.97263336	0	-5.228824e-06	0.999684	0	0.011828856	0.99263334	0	-0.9804903	-0.16021065	0	0.007891192	-0.99271214	0	-0.088798374	-0.9889616	0	0.66	100	2e-09
0	-0.028776698	0.12235519	0	-1.9969965e-17	-2.5847834e-17	0	0	1.5707964	1.5707964	1.5707964	4.712389	0	-0.07758452	0.9898828	0	-0.14608684	-0.98258436	0	1.1581566e-05	0.9996841	0	0.025728526	0.9923683	0	-0.9910361	0.051486727	0	0.015163621	-0.9926378	0	0.972367	-0.20171326	0	0.66	100	2e-09
0	-0.1872114	0.27734932	0	-1.9927244e-17	-2.5847834e-17	0	0	1.5707964	1.5707964	1.5707964	4.712389	1.5707964	-0.07747905	0.98988706	0	-0.14549175	-0.9827047	0	9.359629e-05	0.99968415	0	0.019181233	0.9925048	0	-0.9909677	-0.05219113	0	-0.010871809	-0.9926944	0	-0.10494434	0.9869597	0	0.66	100	2e-09
0	-0.32067043	0.07756748	0	-2.0021296e-17	-2.5847829e-17	0	0	1.5707964	1.5707964	1.5707964	4.712389	3.1415927	-0.10159697	0.98772734	0	-0.20971635	-0.971469	0	4.828526e-05	0.999684	0	0.0063857106	0.99267656	0	-0.95608515	-0.27313593	0	-0.010641593	-0.99268794	0	-0.97308695	-0.19982265	0	0.66	100	2e-09
0	-0.19330426	-0.01919443	0	-2.0046348e-17	-2.5847829e-17	0	0	1.5707964	1.5707964	1.5707964	4.712389	4.712389	-0.09970814	0.98792017	0	-0.20422652	-0.9725706	0	-5.0693393e-06	0.999684	0	0.011593356	0.99263597	0	-0.9804662	-0.16036387	0	0.0085072	-0.9927072	0	-0.08882445	-0.98895943	0	0.66	100	2e-09
0	0.083221145	0.311481	0	-2.0088513e-17	-2.584783e-17	0	0	1.5707964	1.5707964	3.1415927	0	0	-0.08259883	0.98948365	0	-0.17247929	-0.97841954	0	-3.147269e-05	0.99968404	0	-0.06452333	0.99051076	0	-0.9917743	0.034286622	0	0.92530394	0.36421433	0	0.96865135	-0.2193931	0	0.66	100	2e-09
0	-0.071501754	0.47079018	0	-2.0040244e-17	-2.5847834e-17	0	0	1.5707964	1.5707964	3.1415927	0	1.5707964	-0.08252981	0.98948604	0	-0.17126358	-0.97866005	0	5.028511e-05	0.9996841	0	-0.07145435	0.99003196	0	-0.9900212	-0.06851113	0	0.9204257	0.37665334	0	-0.10571939	0.9868467	0	0.66	100	2e-09
0	-0.32465306	0.36136514	0	-2.0221596e-17	-2.5847829e-17	0	0	1.5707964	1.5707964	3.1415927	0	3.1415927	-0.10366693	0.9875266	0	-0.23888299	-0.96490526	0	7.1975824e-06	0.99968404	0	0.0031775436	0.9926751	0	-0.9575052	-0.2680229	0	-0.004723967	0.99272275	0	-0.9709769	-0.21012442	0	0.66	100	2e-09
0	-0.19995412	0.26556027	0	-2.024698e-17	-2.5847829e-17	0	0	1.5707964	1.5707964	3.1415927	0	4.712389	-0.10154981	0.9877463	0	-0.23342514	-0.96616757	0	-4.5663965e-05	0.999684	0	0.0072506247	0.9926599	0	-0.980642	-0.15943487	0	0.0049942955	0.9927202	0	-0.09626111	-0.98828596	0	0.66	100	2e-09
0	-0.03596642	0.4033029	0	-2.0164443e-17	-2.5847834e-17	0	0	1.5707964	1.5707964	3.1415927	1.5707964	0	-0.0797277	0.98972774	0	-0.17457037	-0.97804976	0	-3.0787134e-05	0.9996841	0	0.016259942	0.9925486	0	-0.9913481	0.046076085	0	0.009038229	0.99268407	0	0.96861404	-0.21955031	0	0.66	100	2e-09
0	-0.19387917	0.5608042	0	-2.0120737e-17	-2.584783e-17	0	0	1.5707964	1.5707964	3.1415927	1.5707964	1.5707964	-0.07962267	0.98973286	0	-0.17282505	-0.978384	0	5.1574967e-05	0.99968415	0	0.011079597	0.992609	0	-0.9908303	-0.055944424	0	-0.0045640897	0.99271506	0	-0.12044323	0.98521686	0	0.66	100	2e-09
0	-0.3244738	0.36145398	0	-2.0221596e-17	-2.5847829e-17	0	0	1.5707964	1.5707964	3.1415927	1.5707964	3.1415927	-0.103301324	0.98756456	0	-0.23791383	-0.9651367	0	6.722413e-06	0.999684	0	0.0032389052	0.99267495	0	-0.95766896	-0.26741675	0	-0.0046573756	0.99272305	0	-0.971021	-0.20991486	0	0.66	100	2e-09