# t (s)	mx ()	my ()	mz ()	E_total (J)	E_Zeeman (J)	a1 (rad)	a2 (rad)	a3 (rad)	m.region1x ()	m.region1y ()	m.region1z ()	m.region2x ()	m.region2y ()	m.region2z ()	m.region3x ()	m.region3y ()	m.region3z ()	m.region4x ()	m.region4y ()	m.region4z ()	roundness ()	size (m)	Cell_size (m)
0	0.6181566	0.07412942	0	-2.2630692e-17	-2.584775e-17	0.7853982	0	0.7853982	0.67036974	0.72905934	0	0.9924279	-0.017431535	0	0.8084129	0.5731455	0	-0.0009850573	-0.99968076	0	0.66	1e-07	2e-09
0	0.28056303	0.13095012	0	-2.2486101e-17	-2.5847718e-17	0.7853982	0	2.3561945	0.66542786	0.73353654	0	0.9905901	-0.06072074	0	-0.52828914	0.83770055	0	-0.0012789153	-0.9996796	0	0.66	1e-07	2e-09
0	0.28151572	-0.24063046	0	-2.249739e-17	-2.5847801e-17	0.7853982	0	3.9269907	0.65827477	0.7399684	0	0.9829816	0.14227729	0	-0.51071304	-0.84877247	0	-0.00036686222	-0.9996829	0	0.66	1e-07	2e-09
0	0.61243325	-0.19099753	0	-2.263823e-17	-2.5847798e-17	0.7853982	0	5.497787	0.66368914	0.73514754	0	0.9891131	0.08686776	0	0.7949761	-0.5915266	0	-0.00036027687	-0.9996829	0	0.66	1e-07	2e-09
0	0.6182258	0.07414322	0	-2.263069e-17	-2.584775e-17	0.7853982	1.5707964	0.7853982	0.6704208	0.7290123	0	0.9924342	-0.017020777	0	0.808631	0.5728408	0	-0.0009848789	-0.99968076	0	0.66	1e-07	2e-09
0	0.009710004	0.33331892	0	-2.2460875e-17	-2.5847818e-17	0.7853982	1.5707964	2.3561945	0.7458795	0.6515937	0	0.01092574	0.99222744	0	-0.7176329	0.6825293	0	-0.00041964455	-0.99968356	0	0.66	1e-07	2e-09
0	0.03668793	-0.028169695	0	-2.2519727e-17	-2.5847859e-17	0.7853982	1.5707964	3.9269907	0.7325659	0.66647357	0	0.034485757	0.99251574	0	-0.6210325	-0.7715008	0	0.0003548443	-0.99968517	0	0.66	1e-07	2e-09
0	0.6124807	-0.19092037	0	-2.2638228e-17	-2.5847798e-17	0.7853982	1.5707964	5.497787	0.6636325	0.73519874	0	0.9891186	0.086802974	0	0.7952162	-0.5912067	0	-0.0003604183	-0.9996829	0	0.66	1e-07	2e-09
0	0.10188071	0.084493734	0	-2.2400061e-17	-2.5847746e-17	0.7853982	3.1415927	0.7853982	0.7643967	0.62974334	0	-0.9884869	-0.07658106	0	0.6194106	0.77228516	0	0.0005188336	-0.9996809	0	0.66	1e-07	2e-09
0	-0.24808407	0.06201148	0	-2.2477784e-17	-2.5847745e-17	0.7853982	3.1415927	2.3561945	0.76136583	0.63334686	0	-0.9915413	-0.023382308	0	-0.7674526	0.6265162	0	0.00043967433	-0.9996807	0	0.66	1e-07	2e-09
0	-0.24471124	-0.21595727	0	-2.2485873e-17	-2.5847778e-17	0.7853982	3.1415927	3.9269907	0.75212395	0.6442453	0	-0.9837882	0.13091996	0	-0.7531333	-0.6435952	0	0.0011168341	-0.9996819	0	0.66	1e-07	2e-09
0	0.10304559	-0.22448485	0	-2.241138e-17	-2.584779e-17	0.7853982	3.1415927	5.497787	0.75722265	0.6383023	0	-0.96257806	0.24436322	0	0.6047669	-0.78392595	0	0.0013263186	-0.99968237	0	0.66	1e-07	2e-09
0	0.6180981	0.07406357	0	-2.2630689e-17	-2.5847751e-17	0.7853982	4.712389	0.7853982	0.670177	0.72923696	0	0.9924204	-0.01792124	0	0.8083806	0.5731906	0	-0.0009850392	-0.99968076	0	0.66	1e-07	2e-09
0	0.015395806	-0.1164996	0	-2.2493168e-17	-2.5847672e-17	0.7853982	4.712389	2.3561945	0.65240234	0.74506444	0	0.041687164	-0.99114984	0	-0.63195014	0.7625312	0	-0.00045376315	-0.99967796	0	0.66	1e-07	2e-09
0	-0.01071114	-0.4788005	0	-2.2448959e-17	-2.5847717e-17	0.7853982	4.712389	3.9269907	0.6312585	0.763088	0	0.029469341	-0.99156433	0	-0.70340365	-0.69717973	0	0.0003334756	-0.99967957	0	0.66	1e-07	2e-09
0	0.6124703	-0.19078599	0	-2.2638228e-17	-2.5847801e-17	0.7853982	4.712389	5.497787	0.66374946	0.73509294	0	0.98905176	0.087573625	0	0.7951244	-0.59132904	0	-0.0003603235	-0.9996828	0	0.66	1e-07	2e-09
0	0.28407902	0.03598922	0	-2.2601362e-17	-2.5847733e-17	2.3561945	0	0.7853982	-0.62603736	0.76779056	0	0.96813786	-0.22291721	0	0.7989767	0.5860719	0	-0.0008480082	-0.99968034	0	0.66	1e-07	2e-09
0	-0.39813784	-0.16996792	0	-2.2589416e-17	-2.5847672e-17	2.3561945	0	2.3561945	-0.8128499	0.5666678	0	-0.09814843	-0.9881656	0	-0.67449903	0.7251481	0	-0.00021166823	-0.99967796	0	0.66	1e-07	2e-09
0	-0.051864747	-0.29857272	0	-2.2483396e-17	-2.584778e-17	2.3561945	0	3.9269907	-0.64475113	0.75209457	0	0.9855948	-0.119902335	0	-0.53736955	-0.831923	0	-0.0002560244	-0.99968207	0	0.66	1e-07	2e-09
0	0.2876535	-0.23168439	0	-2.2609678e-17	-2.5847784e-17	2.3561945	0	5.497787	-0.61800426	0.77429795	0	0.98739946	-0.103639595	0	0.7854854	-0.60398763	0	-0.00022866434	-0.9996823	0	0.66	1e-07	2e-09
0	0.28408408	0.035983834	0	-2.2601362e-17	-2.5847733e-17	2.3561945	1.5707964	0.7853982	-0.6260202	0.76780474	0	0.9681324	-0.22294185	0	0.79898506	0.5860607	0	-0.0008479964	-0.99968034	0	0.66	1e-07	2e-09
0	-0.38775912	0.3459358	0	-2.2389802e-17	-2.5847816e-17	2.3561945	1.5707964	2.3561945	-0.6375267	0.75763524	0	-0.1488327	0.9816721	0	-0.7584181	0.6371598	0	-0.000116243886	-0.99968356	0	0.66	1e-07	2e-09
0	-0.3403648	-0.0016067302	0	-2.2458452e-17	-2.5847854e-17	2.3561945	1.5707964	3.9269907	-0.63491035	0.7599064	0	-0.08181345	0.9895989	0	-0.6394445	-0.75631475	0	0.0005865075	-0.9996849	0	0.66	1e-07	2e-09
0	-0.2974352	-0.36452198	0	-2.2452539e-17	-2.584775e-17	2.3561945	1.5707964	5.497787	-0.8168097	0.5605204	0	-0.96709955	-0.2279776	0	0.58906275	-0.795838	0	0.001470945	-0.99968094	0	0.66	1e-07	2e-09
0	0.03068994	-0.16011435	0	-2.2608216e-17	-2.5847685e-17	2.3561945	3.1415927	0.7853982	-0.76774627	0.6260775	0	0.18443522	-0.9760922	0	0.7075493	0.69300485	0	-0.00027471088	-0.9996784	0	0.66	1e-07	2e-09
0	-0.6384479	-0.046218835	0	-2.2541515e-17	-2.5847722e-17	2.3561945	3.1415927	2.3561945	-0.841428	0.5233747	0	-0.9352618	-0.3388802	0	-0.77427375	0.6180932	0	0.00052654574	-0.9996799	0	0.66	1e-07	2e-09
0	-0.64509803	-0.31513005	0	-2.2546924e-17	-2.584775e-17	2.3561945	3.1415927	3.9269907	-0.8333462	0.53596723	0	-0.9774611	-0.17590217	0	-0.7677336	-0.6262507	0	0.0012268666	-0.99968094	0	0.66	1e-07	2e-09
0	-0.2974705	-0.3643704	0	-2.2452539e-17	-2.584775e-17	2.3561945	3.1415927	5.497787	-0.8167436	0.56061536	0	-0.9672293	-0.22740534	0	0.5889844	-0.7958965	0	0.0014710734	-0.9996809	0	0.66	1e-07	2e-09
0	0.030682696	-0.16010614	0	-2.2608216e-17	-2.5847682e-17	2.3561945	4.712389	0.7853982	-0.76772904	0.6260984	0	0.18440573	-0.97609746	0	0.7075325	0.6930219	0	-0.00027469455	-0.99967825	0	0.66	1e-07	2e-09
0	-0.3982534	-0.1700211	0	-2.2589414e-17	-2.5847672e-17	2.3561945	4.712389	2.3561945	-0.81292456	0.5665618	0	-0.09839734	-0.98814166	0	-0.6746382	0.7250187	0	-0.00021140125	-0.99967796	0	0.66	1e-07	2e-09
0	-0.41811472	-0.5228505	0	-2.25589e-17	-2.584771e-17	2.3561945	4.712389	3.9269907	-0.81827104	0.5589167	0	-0.12261498	-0.98511213	0	-0.72512174	-0.6747339	0	0.0005507362	-0.9996794	0	0.66	1e-07	2e-09
0	0.052007698	-0.4928688	0	-2.2579466e-17	-2.5847722e-17	2.3561945	4.712389	5.497787	-0.76694924	0.627092	0	0.21939766	-0.9687322	0	0.75630516	-0.6397894	0	0.00041241624	-0.99967986	0	0.66	1e-07	2e-09
0	-0.0092144795	-0.37798193	0	-2.2442164e-17	-2.5847869e-17	3.9269907	0	0.7853982	-0.6454587	-0.75114334	0	-0.04497242	0.99089533	0	0.6528691	-0.744669	0	0.00044818854	-0.9996854	0	0.66	1e-07	2e-09
0	-0.42539364	-0.48007867	0	-2.264829e-17	-2.584768e-17	3.9269907	0	2.3561945	-0.71906954	-0.68109804	0	-0.28074393	-0.9539896	0	-0.69591737	0.70471096	0	-0.0002576723	-0.99967813	0	0.66	1e-07	2e-09
0	-0.6068359	-0.6355191	0	-2.2640852e-17	-2.584776e-17	3.9269907	0	3.9269907	-0.6756888	-0.7241798	0	-0.97185886	-0.20456761	0	-0.77840924	-0.6129929	0	0.000993865	-0.9996813	0	0.66	1e-07	2e-09
0	0.24117361	-0.63779813	0	-2.253677e-17	-2.5847773e-17	3.9269907	0	5.497787	-0.7587231	-0.6365808	0	0.9421779	-0.31217942	0	0.7861609	-0.6031062	0	-0.00041714017	-0.99968183	0	0.66	1e-07	2e-09
0	0.028777627	-0.03420853	0	-2.2379573e-17	-2.5847834e-17	3.9269907	1.5707964	0.7853982	-0.6266456	-0.7669339	0	-0.015771756	0.9917291	0	0.7571164	0.6386476	0	-0.00031040702	-0.99968415	0	0.66	1e-07	2e-09
0	-0.5964286	-0.35930634	0	-2.2641545e-17	-2.5847732e-17	3.9269907	1.5707964	2.3561945	-0.67093337	-0.72858286	0	-0.9375878	-0.33218056	0	-0.7749978	0.61720604	0	0.00031048193	-0.99968016	0	0.66	1e-07	2e-09
0	-0.60683674	-0.6355185	0	-2.2640853e-17	-2.584776e-17	3.9269907	1.5707964	3.9269907	-0.67569256	-0.72417635	0	-0.97185874	-0.20456836	0	-0.7784091	-0.6129931	0	0.0009938661	-0.9996813	0	0.66	1e-07	2e-09
0	-0.009198039	-0.37797487	0	-2.2442163e-17	-2.5847869e-17	3.9269907	1.5707964	5.497787	-0.6454756	-0.7511288	0	-0.04490113	0.9908984	0	0.6528811	-0.7446585	0	0.00044812387	-0.99968547	0	0.66	1e-07	2e-09
0	-0.017554158	-0.4828825	0	-2.2638701e-17	-2.5847685e-17	3.9269907	3.1415927	0.7853982	-0.72674024	-0.6728654	0	-0.018874422	-0.99287856	0	0.6758903	0.7238255	0	-0.00033642424	-0.9996784	0	0.66	1e-07	2e-09
0	-0.59642816	-0.3593055	0	-2.2641545e-17	-2.5847732e-17	3.9269907	3.1415927	2.3561945	-0.670933	-0.7285832	0	-0.9375884	-0.33217898	0	-0.77499616	0.6172081	0	0.00031048156	-0.9996801	0	0.66	1e-07	2e-09
0	-0.6068323	-0.6355224	0	-2.2640853e-17	-2.584776e-17	3.9269907	3.1415927	3.9269907	-0.6756706	-0.7241968	0	-0.97185856	-0.20456943	0	-0.77841383	-0.61298716	0	0.0009938567	-0.9996813	0	0.66	1e-07	2e-09
0	-0.2608575	-0.6953752	0	-2.2537846e-17	-2.5847761e-17	3.9269907	3.1415927	5.497787	-0.67489856	-0.72487897	0	-0.9598607	-0.25743017	0	0.58580214	-0.79820025	0	0.0012439048	-0.99968135	0	0.66	1e-07	2e-09
0	-0.017548079	-0.4829173	0	-2.2638701e-17	-2.5847685e-17	3.9269907	4.712389	0.7853982	-0.7267024	-0.67290616	0	-0.018996362	-0.99287593	0	0.67599726	0.72372544	0	-0.00033626286	-0.9996784	0	0.66	1e-07	2e-09
0	-0.4253952	-0.48008022	0	-2.264829e-17	-2.584768e-17	3.9269907	4.712389	2.3561945	-0.7190693	-0.6810984	0	-0.28074437	-0.9539894	0	-0.69592345	0.70470506	0	-0.0002576692	-0.99967813	0	0.66	1e-07	2e-09
0	-0.45533407	-0.811923	0	-2.2615331e-17	-2.5847717e-17	3.9269907	4.712389	3.9269907	-0.72755414	-0.67206526	0	-0.33480865	-0.93629616	0	-0.7538273	-0.64271116	0	0.0005045081	-0.99967957	0	0.66	1e-07	2e-09
0	-0.0036758096	-0.82839364	0	-2.2602877e-17	-2.5847723e-17	3.9269907	4.712389	5.497787	-0.7389596	-0.65946895	0	-0.009789944	-0.99227846	0	0.7336191	-0.66543305	0	0.00040726317	-0.9996799	0	0.66	1e-07	2e-09
0	0.6421462	-0.27939796	0	-2.2558363e-17	-2.5847738e-17	5.497787	0	0.7853982	0.7849599	-0.60389555	0	0.9867316	-0.110645145	0	0.7951872	0.59122205	0	-0.0012230359	-0.99968046	0	0.66	1e-07	2e-09
0	0.29544222	-0.25585175	0	-2.2426246e-17	-2.58477e-17	5.497787	0	2.3561945	0.75295484	-0.6430845	0	0.968528	-0.22137971	0	-0.53453	0.8337819	0	-0.001496135	-0.999679	0	0.66	1e-07	2e-09
0	0.30693558	-0.59710354	0	-2.2423275e-17	-2.5847793e-17	5.497787	0	3.9269907	0.776187	-0.6149926	0	0.9908212	0.06224955	0	-0.53495896	-0.8334711	0	-0.0006173291	-0.9996826	0	0.66	1e-07	2e-09
0	0.6465645	-0.53989464	0	-2.2557602e-17	-2.5847794e-17	5.497787	0	5.497787	0.7943006	-0.59163314	0	0.9925031	0.021411795	0	0.79709595	-0.58867943	0	-0.0005948113	-0.9996827	0	0.66	1e-07	2e-09
0	0.44206482	0.0016571188	0	-2.2476772e-17	-2.5847834e-17	5.497787	1.5707964	0.7853982	0.80079144	-0.5834559	0	0.18343051	0.97582644	0	0.777736	0.61367565	0	-0.00057393016	-0.99968415	0	0.66	1e-07	2e-09
0	-0.29614317	-0.33336306	0	-2.2586812e-17	-2.5847745e-17	5.497787	1.5707964	2.3561945	0.5615593	-0.81642854	0	-0.9819982	-0.14771107	0	-0.76816493	0.62565565	0	0.00021239296	-0.99968076	0	0.66	1e-07	2e-09
0	-0.043821175	-0.35952172	0	-2.2507738e-17	-2.5847859e-17	5.497787	1.5707964	3.9269907	0.7378711	-0.660935	0	-0.24902874	0.9621698	0	-0.6660657	-0.73295504	0	0.00035987698	-0.99968517	0	0.66	1e-07	2e-09
0	0.4068853	-0.33054334	0	-2.252523e-17	-2.5847872e-17	5.497787	1.5707964	5.497787	0.7929098	-0.5940265	0	0.13332513	0.9839567	0	0.6944697	-0.70609075	0	0.00016723594	-0.9996856	0	0.66	1e-07	2e-09
0	0.056071825	-0.31095153	0	-2.2498403e-17	-2.5847745e-17	5.497787	3.1415927	0.7853982	0.5816958	-0.80206597	0	-0.9640357	-0.23884796	0	0.5958077	0.7907431	0	0.00027140504	-0.9996807	0	0.66	1e-07	2e-09
0	-0.29615715	-0.33344907	0	-2.2586812e-17	-2.5847745e-17	5.497787	3.1415927	2.3561945	0.56139517	-0.8165425	0	-0.9819531	-0.1480205	0	-0.76810104	0.6257337	0	0.00021231787	-0.9996807	0	0.66	1e-07	2e-09
0	-0.29809853	-0.6151218	0	-2.2584926e-17	-2.5847775e-17	5.497787	3.1415927	3.9269907	0.5671371	-0.8125443	0	-0.99232143	-0.025254954	0	-0.7719699	-0.6209932	0	0.00088515197	-0.9996819	0	0.66	1e-07	2e-09
0	0.053758375	-0.64577895	0	-2.2493837e-17	-2.5847784e-17	5.497787	3.1415927	5.497787	0.5964343	-0.7911244	0	-0.99248254	-0.0013301125	0	0.5991759	-0.78813064	0	0.0011327718	-0.9996823	0	0.66	1e-07	2e-09
0	0.34082	-0.5132706	0	-2.256807e-17	-2.5847688e-17	5.497787	4.712389	0.7853982	0.60390306	-0.7849647	0	0.066308066	-0.9906874	0	0.68757296	0.7127985	0	-0.00054207054	-0.9996785	0	0.66	1e-07	2e-09
0	-0.09871094	-0.5139488	0	-2.2558428e-17	-2.584768e-17	5.497787	4.712389	2.3561945	0.5383498	-0.83180207	0	-0.25987327	-0.9595944	0	-0.6735086	0.72614837	0	-0.00042817078	-0.99967825	0	0.66	1e-07	2e-09
0	-0.14647731	-0.8541934	0	-2.2513988e-17	-2.5847723e-17	5.497787	4.712389	3.9269907	0.5165377	-0.84571725	0	-0.3491492	-0.931332	0	-0.75421476	-0.6422272	0	0.00036965177	-0.99967986	0	0.66	1e-07	2e-09
0	0.36546752	-0.8508502	0	-2.2521931e-17	-2.5847728e-17	5.497787	4.712389	5.497787	0.5995197	-0.78829396	0	0.0912932	-0.98845285	0	0.7646258	-0.6297821	0	0.00016182207	-0.9996801	0	0.66	1e-07	2e-09
