# t (s)	mx ()	my ()	mz ()	E_total (J)	L (m)
0	0.96218693	-4.3834806e-08	2.1318372e-05	2.6030367e-18	5e-08
0	0.9434116	-3.824457e-08	1.5314352e-05	4.351868e-18	6e-08
0	0.92525226	-2.6779988e-08	1.056981e-05	6.596356e-18	7e-08
0	0.907591	-3.1381255e-08	9.133858e-06	9.39561e-18	8e-08
0	0.89015436	-2.4488612e-08	7.3379147e-06	1.2970571e-17	9e-08
0	0.8757094	-2.2069003e-08	6.271463e-06	1.7139976e-17	1e-07
