# t (s)	mx ()	my ()	mz ()	E_total (J)	L (m)
0	0.9793724	9.345864e-05	-5.72535e-05	1.6864184e-18	5e-08
0	9.423659e-08	-3.2982808e-08	-0.78139144	3.5836496e-18	6e-08
0	0	5.088776e-08	-0.65256053	4.9900067e-18	7e-08
0	-6.031142e-08	-2.073205e-08	-0.5587061	6.50899e-18	8e-08
0	0	-6.5965615e-09	-0.48643464	8.153666e-18	9e-08
0	-3.769464e-09	-1.884732e-09	-0.42845502	9.929328e-18	1e-07
