# t (s)	mx ()	my ()	mz ()	E_total (J)	L (m)
0	0.96218705	9.114303e-05	-3.1454294e-06	2.6030367e-18	5e-08
0	0.00015886078	-0.00023876058	0.44745672	5.7119518e-18	6e-08
0	0.0001343728	-1.4512017e-05	0.35234395	7.477544e-18	7e-08
0	8.803925e-05	-2.1879125e-05	0.29697028	9.336633e-18	8e-08
0	-4.00242e-05	-4.6828663e-05	0.24888334	1.1420776e-17	9e-08
0	0.8757094	3.3390064e-05	-5.8993317e-09	1.7139978e-17	1e-07
