# t (s)	mx ()	my ()	mz ()	E_total (J)	E_Zeeman (J)	a1 (rad)	a2 (rad)	a3 (rad)	m.region1x ()	m.region1y ()	m.region1z ()	m.region2x ()	m.region2y ()	m.region2z ()	m.region3x ()	m.region3y ()	m.region3z ()	roundness ()	size (m)	Cell_size (m)	var1-d (nm)	var2-s (nm)
0	0.33295363	0.64161235	0	-2.3517967e-17	-2.584746e-17	0	0	1.5707964	0.011114371	0.99078715	0	0.9907459	-0.06561981	0	-0.0029993698	0.9996697	0	0.66	100	2e-09	-100	-100
0	-0.028400717	0.98809373	0	-2.346399e-17	-2.5847574e-17	0	1.5707964	1.5707964	-0.17851152	0.9763762	0	0.0947604	0.9882309	0	-0.0014510369	0.99967414	0	0.66	100	2e-09	-100	-100
0	-0.45839497	0.61717373	0	-2.3468138e-17	-2.584705e-17	0	3.1415927	1.5707964	-0.3816692	0.9181739	0	-0.99045706	-0.06630663	0	-0.0030586554	0.9996538	0	0.66	100	2e-09	-100	-100
0	0.33290878	0.64152956	0	-2.3517967e-17	-2.584746e-17	0	4.712389	1.5707964	0.010996011	0.99078953	0	0.9907298	-0.06587045	0	-0.002999533	0.9996696	0	0.66	100	2e-09	-100	-100
0	0.33291858	0.6416397	0	-2.3517967e-17	-2.584746e-17	1.5707964	0	1.5707964	0.011003658	0.99078953	0	0.99075097	-0.06554025	0	-0.0029990254	0.9996697	0	0.66	100	2e-09	-100	-100
0	-0.02866016	0.9881046	0	-2.346399e-17	-2.5847573e-17	1.5707964	1.5707964	1.5707964	-0.17865896	0.9763505	0	0.09412944	0.98828936	0	-0.0014509651	0.9996742	0	0.66	100	2e-09	-100	-100
0	-0.45835993	0.61723083	0	-2.346814e-17	-2.584705e-17	1.5707964	3.1415927	1.5707964	-0.38155568	0.9182191	0	-0.9904652	-0.06618048	0	-0.003058842	0.9996539	0	0.66	100	2e-09	-100	-100
0	-0.021690657	0.3304389	0	-2.3505543e-17	-2.5846927e-17	1.5707964	4.712389	1.5707964	-0.15018183	0.980585	0	0.0896549	-0.9889173	0	-0.00454506	0.9996492	0	0.66	100	2e-09	-100	-100
0	0.3328749	0.64160365	0	-2.3517967e-17	-2.584746e-17	3.1415927	0	1.5707964	0.010879693	0.9907919	0	0.99074405	-0.06565061	0	-0.0029989546	0.99966973	0	0.66	100	2e-09	-100	-100
0	-0.028722433	0.9880954	0	-2.346399e-17	-2.5847573e-17	3.1415927	1.5707964	1.5707964	-0.17882802	0.9763209	0	0.09411128	0.9882911	0	-0.0014505547	0.99967414	0	0.66	100	2e-09	-100	-100
0	-0.6263304	0.4800359	0	-2.346348e-17	-2.5847123e-17	3.1415927	3.1415927	1.5707964	-0.8857679	0.44942486	0	-0.992562	-0.0089737745	0	-0.00066121895	0.99965674	0	0.66	100	2e-09	-100	-100
0	-0.021432463	0.33046567	0	-2.3505545e-17	-2.5846924e-17	3.1415927	4.712389	1.5707964	-0.1499704	0.98061544	0	0.09021819	-0.9888675	0	-0.0045451694	0.99964905	0	0.66	100	2e-09	-100	-100
0	0.3329559	0.6416176	0	-2.3517967e-17	-2.584746e-17	4.712389	0	1.5707964	0.011120138	0.9907871	0	0.9907469	-0.065604	0	-0.0029993558	0.9996696	0	0.66	100	2e-09	-100	-100
0	-0.028720994	0.98809594	0	-2.3463989e-17	-2.5847574e-17	4.712389	1.5707964	1.5707964	-0.17882179	0.9763221	0	0.094109364	0.9882912	0	-0.0014505712	0.99967414	0	0.66	100	2e-09	-100	-100
0	-0.62633103	0.48003495	0	-2.346348e-17	-2.5847123e-17	4.712389	3.1415927	1.5707964	-0.88576996	0.44942075	0	-0.9925621	-0.008972546	0	-0.00066119747	0.99965674	0	0.66	100	2e-09	-100	-100
0	-0.021732815	0.3304342	0	-2.3505546e-17	-2.5846924e-17	4.712389	4.712389	1.5707964	-0.15023775	0.98057705	0	0.08958429	-0.9889235	0	-0.004544973	0.9996492	0	0.66	100	2e-09	-100	-100
0	0.33135775	0.6499471	0	-2.3478051e-17	-2.5847836e-17	0	0	1.5707964	0.004969669	0.99156725	0	0.99208146	-0.041410074	0	-0.002977843	0.9996844	0	0.66	100	2e-09	-100	-90
0	0.33128446	0.6499327	0	-2.3478051e-17	-2.5847836e-17	0	1.5707964	1.5707964	0.00475147	0.99156934	0	0.9920795	-0.041455552	0	-0.002977648	0.99968433	0	0.66	100	2e-09	-100	-90
0	-0.48721358	0.6145082	0	-2.3420224e-17	-2.5847416e-17	0	3.1415927	1.5707964	-0.4667695	0.8785443	0	-0.99196815	-0.034687586	0	-0.002903116	0.999668	0	0.66	100	2e-09	-100	-90
0	-0.02001861	0.33042353	0	-2.3453712e-17	-2.5847224e-17	0	4.712389	1.5707964	-0.16602105	0.9783961	0	0.11081721	-0.9867862	0	-0.0048520183	0.99966055	0	0.66	100	2e-09	-100	-90
0	0.33131644	0.649971	0	-2.3478053e-17	-2.5847836e-17	1.5707964	0	1.5707964	0.00484255	0.99156845	0	0.99208426	-0.041339748	0	-0.002977549	0.9996844	0	0.66	100	2e-09	-100	-90
0	-0.029298112	0.9864111	0	-2.3427442e-17	-2.5848013e-17	1.5707964	1.5707964	1.5707964	-0.19823764	0.97296005	0	0.11154624	0.98658234	0	-0.001202941	0.9996911	0	0.66	100	2e-09	-100	-90
0	-0.48717263	0.6145234	0	-2.3420228e-17	-2.5847414e-17	1.5707964	3.1415927	1.5707964	-0.466647	0.87860775	0	-0.99196756	-0.034705378	0	-0.0029035516	0.999668	0	0.66	100	2e-09	-100	-90
0	-0.020293051	0.33038905	0	-2.3453715e-17	-2.5847222e-17	1.5707964	4.712389	1.5707964	-0.16627932	0.97835404	0	0.110252135	-0.9868476	0	-0.004851965	0.99966055	0	0.66	100	2e-09	-100	-90
0	0.3020696	0.063383445	0	-2.3228856e-17	-2.5847009e-17	3.1415927	0	1.5707964	-0.07500492	-0.98710144	0	0.9770106	0.17759946	0	0.0042031603	0.99965227	0	0.66	100	2e-09	-100	-90
0	-0.35364655	0.75136536	0	-2.3415614e-17	-2.5847619e-17	3.1415927	1.5707964	1.5707964	-0.9571075	0.26718366	0	-0.10571423	0.9872368	0	0.0018819547	0.9996758	0	0.66	100	2e-09	-100	-90
0	-0.6472742	0.44219708	0	-2.343905e-17	-2.5847387e-17	3.1415927	3.1415927	1.5707964	-0.9494514	0.29431388	0	-0.99199355	0.032610312	0	-0.00037766396	0.99966687	0	0.66	100	2e-09	-100	-90
0	-0.020314578	0.33038613	0	-2.3453715e-17	-2.5847224e-17	3.1415927	4.712389	1.5707964	-0.16631098	0.978349	0	0.11021918	-0.98685116	0	-0.0048519303	0.9996606	0	0.66	100	2e-09	-100	-90
0	0.30240557	0.06332866	0	-2.3228856e-17	-2.5847012e-17	4.712389	0	1.5707964	-0.0740116	-0.9871808	0	0.9770257	0.17751442	0	0.0042026537	0.9996524	0	0.66	100	2e-09	-100	-90
0	-0.35366777	0.75137466	0	-2.3415617e-17	-2.5847616e-17	4.712389	1.5707964	1.5707964	-0.9570978	0.267219	0	-0.105787285	0.98722917	0	0.001881769	0.9996758	0	0.66	100	2e-09	-100	-90
0	-0.64727134	0.4422205	0	-2.3439048e-17	-2.5847387e-17	4.712389	3.1415927	1.5707964	-0.94944423	0.29433775	0	-0.9919922	0.032656893	0	-0.00037766772	0.99966687	0	0.66	100	2e-09	-100	-90
0	-0.029232446	0.98639745	0	-2.3427442e-17	-2.5848013e-17	4.712389	4.712389	1.5707964	-0.19830257	0.9729475	0	0.11180796	0.9865536	0	-0.0012027266	0.9996911	0	0.66	100	2e-09	-100	-90
0	0.6440179	0.45514318	0	-2.3382396e-17	-2.5848092e-17	0	0	1.5707964	0.9414129	0.3168769	0	0.991758	0.048858568	0	-0.0011171454	0.9996942	0	0.66	100	2e-09	-100	-80
0	0.6440215	0.45513237	0	-2.3382396e-17	-2.5848092e-17	0	1.5707964	1.5707964	0.9414235	0.31684428	0	0.9917579	0.04885852	0	-0.0011170479	0.9996942	0	0.66	100	2e-09	-100	-80
0	-0.6536816	0.42829597	0	-2.3420195e-17	-2.5847568e-17	0	3.1415927	1.5707964	-0.9711107	0.21054727	0	-0.9896579	0.07466686	0	-0.00027612795	0.9996739	0	0.66	100	2e-09	-100	-80
0	-0.653687	0.42827976	0	-2.3420195e-17	-2.5847568e-17	0	4.712389	1.5707964	-0.97113144	0.21044853	0	-0.98965424	0.074716926	0	-0.00027569442	0.99967384	0	0.66	100	2e-09	-100	-80
0	0.33426428	0.6607659	0	-2.3450628e-17	-2.584799e-17	1.5707964	0	1.5707964	0.012674799	0.99203074	0	0.9929536	-0.0094232205	0	-0.002835648	0.99969023	0	0.66	100	2e-09	-100	-80
0	-0.021949252	0.9854266	0	-2.3404584e-17	-2.584826e-17	1.5707964	1.5707964	1.5707964	-0.20004678	0.97280324	0	0.13500094	0.983776	0	-0.00080192444	0.99970067	0	0.66	100	2e-09	-100	-80
0	-0.6536868	0.42838365	0	-2.3420195e-17	-2.5847564e-17	1.5707964	3.1415927	1.5707964	-0.97116774	0.21027645	0	-0.9896187	0.075200774	0	-0.00027408387	0.9996739	0	0.66	100	2e-09	-100	-80
0	-0.010049543	0.33179173	0	-2.3409994e-17	-2.5847326e-17	1.5707964	4.712389	1.5707964	-0.1660193	0.97868854	0	0.14091821	-0.9829779	0	-0.005047532	0.9996646	0	0.66	100	2e-09	-100	-80
0	0.3342573	0.66074175	0	-2.3450632e-17	-2.584799e-17	3.1415927	0	1.5707964	0.012654672	0.99203116	0	0.99295294	-0.009496029	0	-0.0028357918	0.9996901	0	0.66	100	2e-09	-100	-80
0	-0.35384345	0.7184933	0	-2.3414138e-17	-2.5847784e-17	3.1415927	1.5707964	1.5707964	-0.97945434	0.16656515	0	-0.084220774	0.9892326	0	0.0021446934	0.99968237	0	0.66	100	2e-09	-100	-80
0	-0.6537013	0.4282437	0	-2.3420196e-17	-2.5847568e-17	3.1415927	3.1415927	1.5707964	-0.9711866	0.21018517	0	-0.9896429	0.07487212	0	-0.0002744919	0.99967384	0	0.66	100	2e-09	-100	-80
0	-0.31612334	0.15079096	0	-2.3372873e-17	-2.5847217e-17	3.1415927	4.712389	1.5707964	-0.8888529	0.44367015	0	-0.0564426	-0.99095756	0	-0.0030744956	0.9996603	0	0.66	100	2e-09	-100	-80
0	0.31874642	0.07166835	0	-2.3269128e-17	-2.5847088e-17	4.712389	0	1.5707964	-0.01914784	-0.990988	0	0.97146165	0.20633775	0	0.0039253714	0.99965537	0	0.66	100	2e-09	-100	-80
0	-0.3538999	0.71846724	0	-2.3414138e-17	-2.5847788e-17	4.712389	1.5707964	1.5707964	-0.9794651	0.16650014	0	-0.084379375	0.9892193	0	0.002144817	0.99968237	0	0.66	100	2e-09	-100	-80
0	-0.6536857	0.42839277	0	-2.3420196e-17	-2.5847564e-17	4.712389	3.1415927	1.5707964	-0.9711655	0.21028677	0	-0.9896175	0.07521779	0	-0.00027408166	0.99967384	0	0.66	100	2e-09	-100	-80
0	-0.3160992	0.1508214	0	-2.3372873e-17	-2.5847219e-17	4.712389	4.712389	1.5707964	-0.88880634	0.443763	0	-0.05641633	-0.9909591	0	-0.0030748527	0.9996603	0	0.66	100	2e-09	-100	-80
0	0.6527925	0.4337305	0	-2.3388997e-17	-2.5847928e-17	0	0	1.5707964	0.9697461	0.2119926	0	0.9890547	0.08951108	0	-0.0004233156	0.99968785	0	0.66	100	2e-09	-100	-70
0	0.6527918	0.43373668	0	-2.3388997e-17	-2.5847932e-17	0	1.5707964	1.5707964	0.9697454	0.21199603	0	0.9890533	0.089526035	0	-0.00042328855	0.99968773	0	0.66	100	2e-09	-100	-70
0	-0.65552074	0.42508212	0	-2.340409e-17	-2.5847732e-17	0	3.1415927	1.5707964	-0.98225635	0.1480901	0	-0.98423713	0.12747613	0	-6.870311e-05	0.9996801	0	0.66	100	2e-09	-100	-70
0	0.6527508	0.43389842	0	-2.3388998e-17	-2.5847928e-17	0	4.712389	1.5707964	0.96961105	0.21263315	0	0.9890666	0.08937428	0	-0.00042542134	0.99968785	0	0.66	100	2e-09	-100	-70
0	0.34003687	0.674362	0	-2.3431992e-17	-2.5848003e-17	1.5707964	0	1.5707964	0.030153586	0.991992	0	0.99259526	0.031403296	0	-0.0026381183	0.9996908	0	0.66	100	2e-09	-100	-70
0	-0.009086	0.98500127	0	-2.339294e-17	-2.5848373e-17	1.5707964	1.5707964	1.5707964	-0.18779434	0.97529066	0	0.1608501	0.98000795	0	-0.0003137728	0.999705	0	0.66	100	2e-09	-100	-70
0	-0.34838173	0.69543296	0	-2.341871e-17	-2.5847915e-17	1.5707964	3.1415927	1.5707964	-0.988665	0.095665954	0	-0.058851063	0.9909456	0	0.0023708737	0.9996874	0	0.66	100	2e-09	-100	-70
0	0.008727253	0.33492413	0	-2.3370486e-17	-2.5847316e-17	1.5707964	4.712389	1.5707964	-0.15207975	0.98113227	0	0.18343346	-0.97602415	0	-0.0051719383	0.99966425	0	0.66	100	2e-09	-100	-70
0	0.010520289	0.4761495	0	-2.3358224e-17	-2.5847755e-17	3.1415927	0	1.5707964	-0.9510371	0.2858223	0	0.9827441	0.14294517	0	-0.00014630087	0.99968106	0	0.66	100	2e-09	-100	-70
0	-0.34834117	0.6954328	0	-2.341871e-17	-2.5847915e-17	3.1415927	1.5707964	1.5707964	-0.98866576	0.09565827	0	-0.058728766	0.99095273	0	0.0023709356	0.99968725	0	0.66	100	2e-09	-100	-70
0	-0.655521	0.4250803	0	-2.3404086e-17	-2.5847732e-17	3.1415927	3.1415927	1.5707964	-0.98225695	0.1480859	0	-0.9842373	0.12747493	0	-6.869408e-05	0.9996801	0	0.66	100	2e-09	-100	-70
0	-0.33071363	0.109364524	0	-2.334273e-17	-2.5847212e-17	3.1415927	4.712389	1.5707964	-0.9407532	0.3195645	0	-0.048174486	-0.991131	0	-0.0032132177	0.9996601	0	0.66	100	2e-09	-100	-70
0	0.32754	0.084863104	0	-2.3304608e-17	-2.5847152e-17	4.712389	0	1.5707964	0.016816936	-0.9916805	0	0.962194	0.2466117	0	0.0036091462	0.99965805	0	0.66	100	2e-09	-100	-70
0	-0.045085486	0.34220338	0	-2.3325807e-17	-2.5847227e-17	4.712389	1.5707964	1.5707964	-0.25947663	-0.9588381	0	0.11898649	0.98578763	0	0.0052336846	0.99966073	0	0.66	100	2e-09	-100	-70
0	-0.6555041	0.42521837	0	-2.340409e-17	-2.5847732e-17	4.712389	3.1415927	1.5707964	-0.9822766	0.14795238	0	-0.9841687	0.12802254	0	-6.696224e-05	0.9996801	0	0.66	100	2e-09	-100	-70
0	-0.33070913	0.10936923	0	-2.334273e-17	-2.5847212e-17	4.712389	4.712389	1.5707964	-0.94074833	0.31957904	0	-0.04816576	-0.9911314	0	-0.003213261	0.9996601	0	0.66	100	2e-09	-100	-70
0	0.6554551	0.42555755	0	-2.3401198e-17	-2.5847765e-17	0	0	1.5707964	0.98258907	0.13968134	0	0.9837687	0.13730994	0	7.473006e-06	0.99968135	0	0.66	100	2e-09	-100	-60
0	0.6554546	0.42556137	0	-2.3401198e-17	-2.5847761e-17	0	1.5707964	1.5707964	0.9825884	0.13968663	0	0.983768	0.13731618	0	7.477543e-06	0.99968135	0	0.66	100	2e-09	-100	-60
0	0.6554525	0.4255767	0	-2.3401194e-17	-2.5847761e-17	0	3.1415927	1.5707964	0.98258525	0.13970861	0	0.98376465	0.1373401	0	7.4900095e-06	0.99968135	0	0.66	100	2e-09	-100	-60
0	0.6554349	0.4256991	0	-2.3401194e-17	-2.5847761e-17	0	4.712389	1.5707964	0.9825102	0.14025551	0	0.983789	0.13716047	0	5.6092636e-06	0.99968135	0	0.66	100	2e-09	-100	-60
0	0.34698537	0.69150627	0	-2.342031e-17	-2.5847937e-17	1.5707964	0	1.5707964	0.053654548	0.99120915	0	0.98971754	0.08362155	0	-0.0024160016	0.9996881	0	0.66	100	2e-09	-100	-60
0	0.006109173	0.98496693	0	-2.339189e-17	-2.5848383e-17	1.5707964	1.5707964	1.5707964	-0.1658901	0.97918904	0	0.18400759	0.9760064	0	0.00021001753	0.9997054	0	0.66	100	2e-09	-100	-60
0	-0.6536716	0.4312831	0	-2.339108e-17	-2.5847895e-17	1.5707964	3.1415927	1.5707964	-0.9882481	0.09837309	0	-0.97308606	0.1957896	0	0.0003192234	0.9996866	0	0.66	100	2e-09	-100	-60
0	0.03759931	0.34056827	0	-2.3333136e-17	-2.5847245e-17	1.5707964	4.712389	1.5707964	-0.12575606	0.98493934	0	0.24378446	-0.96289575	0	-0.005230477	0.99966145	0	0.66	100	2e-09	-100	-60
0	-0.0065493453	0.47254345	0	-2.3357663e-17	-2.5847755e-17	3.1415927	0	1.5707964	-0.97960925	0.16316451	0	0.95987684	0.25478473	0	8.4369305e-05	0.999681	0	0.66	100	2e-09	-100	-60
0	-0.34139162	0.67748624	0	-2.342914e-17	-2.5847995e-17	3.1415927	1.5707964	1.5707964	-0.9922757	0.04086733	0	-0.034493957	0.991901	0	0.0025947406	0.9996904	0	0.66	100	2e-09	-100	-60
0	-0.6536724	0.43127522	0	-2.3391081e-17	-2.5847895e-17	3.1415927	3.1415927	1.5707964	-0.98825026	0.0983503	0	-0.97308624	0.19578876	0	0.0003192786	0.99968654	0	0.66	100	2e-09	-100	-60
0	-0.32873112	0.088140965	0	-2.331125e-17	-2.584717e-17	3.1415927	4.712389	1.5707964	-0.9596674	0.2564178	0	-0.022984026	-0.9916534	0	-0.0035421005	0.99965835	0	0.66	100	2e-09	-100	-60
0	0.33094007	0.10433461	0	-2.333663e-17	-2.5847207e-17	4.712389	0	1.5707964	0.043887563	-0.9912649	0	0.9456569	0.30460882	0	0.003275677	0.9996599	0	0.66	100	2e-09	-100	-60
0	-0.013601401	0.33580902	0	-2.3362893e-17	-2.5847306e-17	4.712389	1.5707964	1.5707964	-0.193764	-0.9740513	0	0.14777087	0.98181486	0	0.005188923	0.9996637	0	0.66	100	2e-09	-100	-60
0	-0.65363646	0.43143308	0	-2.339108e-17	-2.5847897e-17	4.712389	3.1415927	1.5707964	-0.98826396	0.09820882	0	-0.97296673	0.1964039	0	0.00032130769	0.99968654	0	0.66	100	2e-09	-100	-60
0	0.04842573	-0.3034919	0	-2.316976e-17	-2.5847091e-17	4.712389	4.712389	1.5707964	-0.1853751	-0.97441125	0	0.33080918	-0.9357199	0	-0.00015687871	0.9996555	0	0.66	100	2e-09	-100	-60
0	0.6543633	0.4268457	0	-2.3416773e-17	-2.58476e-17	0	0	1.5707964	0.9888732	0.08433428	0	0.97397155	0.19652772	0	0.00024517096	0.99967504	0	0.66	100	2e-09	-100	-50
0	0.6543637	0.4268869	0	-2.341677e-17	-2.58476e-17	0	1.5707964	1.5707964	0.9888538	0.08456652	0	0.9739928	0.1964191	0	0.0002443074	0.99967504	0	0.66	100	2e-09	-100	-50
0	0.65435356	0.42689005	0	-2.341677e-17	-2.5847598e-17	0	3.1415927	1.5707964	0.9888758	0.08430103	0	0.9739392	0.1966941	0	0.0002457795	0.99967504	0	0.66	100	2e-09	-100	-50
0	0.6543523	0.42698663	0	-2.341677e-17	-2.5847598e-17	0	4.712389	1.5707964	0.98883593	0.08478335	0	0.9739769	0.19650161	0	0.00024409102	0.99967504	0	0.66	100	2e-09	-100	-50
0	0.35297933	0.71332604	0	-2.3414598e-17	-2.5847813e-17	1.5707964	0	1.5707964	0.07915424	0.9896309	0	0.98197436	0.15066367	0	-0.0021906462	0.9996833	0	0.66	100	2e-09	-100	-50
0	0.019745931	0.98530203	0	-2.3401396e-17	-2.5848289e-17	1.5707964	1.5707964	1.5707964	-0.14010085	0.9830891	0	0.19862895	0.9731153	0	0.0007097098	0.9997018	0	0.66	100	2e-09	-100	-50
0	-0.64665914	0.44908544	0	-2.33831e-17	-2.584806e-17	1.5707964	3.1415927	1.5707964	-0.9913615	0.05672637	0	-0.94956464	0.29083714	0	0.0009486402	0.99969304	0	0.66	100	2e-09	-100	-50
0	0.09496824	0.3556761	0	-2.3296917e-17	-2.584716e-17	1.5707964	4.712389	1.5707964	-0.080015324	0.98970574	0	0.37009558	-0.9223355	0	-0.0051755644	0.9996581	0	0.66	100	2e-09	-100	-50
0	-0.33521882	0.6632314	0	-2.3446277e-17	-2.5848e-17	3.1415927	0	1.5707964	-0.9930111	-0.0020692332	0	-0.015444806	0.9920728	0	0.002799473	0.9996906	0	0.66	100	2e-09	-100	-50
0	-0.33523697	0.66322905	0	-2.3446277e-17	-2.5848e-17	3.1415927	1.5707964	1.5707964	-0.9930112	-0.0020751	0	-0.01549926	0.99207175	0	0.0027995154	0.9996906	0	0.66	100	2e-09	-100	-50
0	-0.64665914	0.4490866	0	-2.3383104e-17	-2.584806e-17	3.1415927	3.1415927	1.5707964	-0.9913613	0.056729186	0	-0.9495645	0.29083773	0	0.0009486361	0.99969304	0	0.66	100	2e-09	-100	-50
0	-0.32092154	0.07392914	0	-2.3276558e-17	-2.5847101e-17	3.1415927	4.712389	1.5707964	-0.96996355	0.21340172	0	0.011064147	-0.9912702	0	-0.0038653074	0.99965584	0	0.66	100	2e-09	-100	-50
0	0.32298213	0.1377876	0	-2.3366755e-17	-2.5847219e-17	4.712389	0	1.5707964	0.058382068	-0.9907998	0	0.9075197	0.4045022	0	0.003044556	0.99966055	0	0.66	100	2e-09	-100	-50
0	0.006984169	0.33226785	0	-2.3401843e-17	-2.5847334e-17	4.712389	1.5707964	1.5707964	-0.14838848	-0.98189086	0	0.16426326	0.97902936	0	0.0050777346	0.99966484	0	0.66	100	2e-09	-100	-50
0	-0.3353207	0.66323435	0	-2.3446277e-17	-2.5848e-17	4.712389	3.1415927	1.5707964	-0.9930112	-0.002054807	0	-0.015750617	0.9920671	0	0.0027996048	0.9996906	0	0.66	100	2e-09	-100	-50
0	0.3229565	0.13781416	0	-2.3366759e-17	-2.5847222e-17	4.712389	4.712389	1.5707964	0.05834127	-0.99080217	0	0.9074834	0.40458426	0	0.0030448479	0.9996604	0	0.66	100	2e-09	-100	-50
0	0.649087	0.43835992	0	-2.3435001e-17	-2.5847424e-17	0	0	1.5707964	0.99168545	0.040605832	0	0.9552166	0.2748056	0	0.00035903425	0.9996685	0	0.66	100	2e-09	-100	-40
0	0.4969378	0.611991	0	-2.3411966e-17	-2.584747e-17	0	1.5707964	1.5707964	0.9922021	-0.026301593	0	0.49581042	0.8626047	0	0.0028009648	0.99967	0	0.66	100	2e-09	-100	-40
0	0.4969478	0.61198646	0	-2.3411968e-17	-2.584747e-17	0	3.1415927	1.5707964	0.9922022	-0.026298346	0	0.49584043	0.8625875	0	0.0028008565	0.99967	0	0.66	100	2e-09	-100	-40
0	0.64907193	0.438418	0	-2.3434998e-17	-2.5847424e-17	0	4.712389	1.5707964	0.9916851	0.04061669	0	0.955171	0.27496886	0	0.00035961156	0.9996683	0	0.66	100	2e-09	-100	-40
0	0.3546307	0.74339044	0	-2.3414752e-17	-2.5847654e-17	1.5707964	0	1.5707964	0.1022906	0.98758817	0	0.9635457	0.24290574	0	-0.0019441948	0.99967724	0	0.66	100	2e-09	-100	-40
0	0.02839835	0.98616195	0	-2.3421895e-17	-2.5848074e-17	1.5707964	1.5707964	1.5707964	-0.11582916	0.9861131	0	0.19989209	0.9726792	0	0.001132122	0.99969345	0	0.66	100	2e-09	-100	-40
0	-0.33165544	0.65189505	0	-2.3471725e-17	-2.5847882e-17	1.5707964	3.1415927	1.5707964	-0.99231184	-0.03568869	0	-0.005610512	0.9916879	0	0.0029560677	0.999686	0	0.66	100	2e-09	-100	-40
0	0.354619	0.7434226	0	-2.3414752e-17	-2.5847657e-17	1.5707964	4.712389	1.5707964	0.10227885	0.9875893	0	0.9635221	0.24300143	0	-0.0019438514	0.99967724	0	0.66	100	2e-09	-100	-40
0	0.49700284	0.61196125	0	-2.3411968e-17	-2.584747e-17	3.1415927	0	1.5707964	0.9922025	-0.02628053	0	0.49600562	0.8624943	0	0.002800265	0.99967	0	0.66	100	2e-09	-100	-40
0	-0.33161488	0.65192443	0	-2.3471725e-17	-2.5847882e-17	3.1415927	1.5707964	1.5707964	-0.9923149	-0.035602186	0	-0.005485519	0.9916894	0	0.0029557578	0.99968606	0	0.66	100	2e-09	-100	-40
0	-0.33165604	0.65189654	0	-2.3471725e-17	-2.584788e-17	3.1415927	3.1415927	1.5707964	-0.9923121	-0.035684265	0	-0.0056121266	0.9916879	0	0.0029560612	0.99968606	0	0.66	100	2e-09	-100	-40
0	-0.30673513	0.064573176	0	-2.3237384e-17	-2.5847025e-17	3.1415927	4.712389	1.5707964	-0.9761222	0.18252197	0	0.06006668	-0.98845536	0	-0.004149943	0.999653	0	0.66	100	2e-09	-100	-40
0	0.018929597	0.33054605	0	-2.3444484e-17	-2.584726e-17	4.712389	0	1.5707964	-0.11554495	-0.98624754	0	0.1674361	0.97822374	0	0.004897659	0.99966186	0	0.66	100	2e-09	-100	-40
0	0.018938037	0.33054537	0	-2.3444482e-17	-2.5847258e-17	4.712389	1.5707964	1.5707964	-0.11550476	-0.98625207	0	0.16742115	0.9782262	0	0.0048977165	0.99966186	0	0.66	100	2e-09	-100	-40
0	0.018648393	0.33058277	0	-2.344448e-17	-2.5847258e-17	4.712389	3.1415927	1.5707964	-0.116110094	-0.9861831	0	0.16715756	0.9782695	0	0.004897715	0.999662	0	0.66	100	2e-09	-100	-40
0	0.018928144	0.33054623	0	-2.3444482e-17	-2.5847255e-17	4.712389	4.712389	1.5707964	-0.115546934	-0.98624724	0	0.16743371	0.97822404	0	0.004897663	0.9996618	0	0.66	100	2e-09	-100	-40
0	0.6339101	0.46763182	0	-2.3457732e-17	-2.584719e-17	0	0	1.5707964	0.99258554	0.00060554565	0	0.9086117	0.4026307	0	0.0005333372	0.9996593	0	0.66	100	2e-09	-100	-30
0	0.46348542	0.61694	0	-2.3457575e-17	-2.584714e-17	0	1.5707964	1.5707964	0.99079376	-0.060777467	0	0.3966052	0.91194034	0	0.0030572035	0.9996573	0	0.66	100	2e-09	-100	-30
0	0.46344754	0.61692363	0	-2.3457578e-17	-2.5847138e-17	0	3.1415927	1.5707964	0.99078816	-0.060871992	0	0.39649668	0.91198564	0	0.0030577106	0.9996573	0	0.66	100	2e-09	-100	-30
0	0.63391215	0.4676297	0	-2.3457735e-17	-2.5847194e-17	0	4.712389	1.5707964	0.9925854	0.0006123716	0	0.9086176	0.40261728	0	0.000533266	0.9996594	0	0.66	100	2e-09	-100	-30
0	0.029700475	0.98769474	0	-2.3455371e-17	-2.584768e-17	1.5707964	0	1.5707964	-0.096813895	0.9880486	0	0.18449642	0.9753577	0	0.0014189152	0.99967825	0	0.66	100	2e-09	-100	-30
0	0.029555824	0.98770654	0	-2.3455371e-17	-2.584768e-17	1.5707964	1.5707964	1.5707964	-0.096970335	0.98803353	0	0.18421832	0.97540784	0	0.0014195014	0.99967825	0	0.66	100	2e-09	-100	-30
0	-0.33212078	0.64314705	0	-2.3508708e-17	-2.5847558e-17	1.5707964	3.1415927	1.5707964	-0.9910327	-0.061202284	0	-0.008340214	0.9909699	0	0.0030106283	0.99967337	0	0.66	100	2e-09	-100	-30
0	0.029698417	0.98769385	0	-2.3455368e-17	-2.584768e-17	1.5707964	4.712389	1.5707964	-0.09682835	0.9880472	0	0.18450473	0.97535616	0	0.0014188895	0.99967825	0	0.66	100	2e-09	-100	-30
0	-0.33205867	0.643089	0	-2.3508708e-17	-2.584756e-17	3.1415927	0	1.5707964	-0.99102217	-0.0613794	0	-0.008164494	0.99097276	0	0.0030105952	0.99967355	0	0.66	100	2e-09	-100	-30
0	-0.33210987	0.6431106	0	-2.3508708e-17	-2.5847558e-17	3.1415927	1.5707964	1.5707964	-0.9910262	-0.061312035	0	-0.008314066	0.99097025	0	0.00301076	0.9996734	0	0.66	100	2e-09	-100	-30
0	-0.3320679	0.6430981	0	-2.3508708e-17	-2.5847558e-17	3.1415927	3.1415927	1.5707964	-0.99102384	-0.061351277	0	-0.008190502	0.9909724	0	0.0030105973	0.99967337	0	0.66	100	2e-09	-100	-30
0	-0.2656116	0.06377275	0	-2.3191893e-17	-2.584694e-17	3.1415927	4.712389	1.5707964	-0.97982395	0.16095947	0	0.18739156	-0.96929085	0	-0.0044023874	0.9996496	0	0.66	100	2e-09	-100	-30
0	0.022194255	0.33031946	0	-2.3494257e-17	-2.5847007e-17	4.712389	0	1.5707964	-0.09299373	-0.9886102	0	0.15495601	0.9799165	0	0.0046204855	0.99965215	0	0.66	100	2e-09	-100	-30
0	0.022188907	0.33032057	0	-2.3494255e-17	-2.5847007e-17	4.712389	1.5707964	1.5707964	-0.09297831	-0.98861164	0	0.15492447	0.9799212	0	0.0046205716	0.99965215	0	0.66	100	2e-09	-100	-30
0	0.021895118	0.3303521	0	-2.3494255e-17	-2.5847007e-17	4.712389	3.1415927	1.5707964	-0.093619585	-0.988553	0	0.15468426	0.9799571	0	0.004620663	0.9996522	0	0.66	100	2e-09	-100	-30
0	0.022199146	0.33031893	0	-2.3494257e-17	-2.5847007e-17	4.712389	4.712389	1.5707964	-0.092983775	-0.98861104	0	0.15496072	0.9799158	0	0.0046204817	0.9996521	0	0.66	100	2e-09	-100	-30
0	0.43820804	0.61847466	0	-2.351601e-17	-2.5846628e-17	0	0	1.5707964	0.98914903	-0.0842912	0	0.3225927	0.94007766	0	0.0028824278	0.99963737	0	0.66	100	2e-09	-100	-20
0	0.4381183	0.6184897	0	-2.351601e-17	-2.5846625e-17	0	1.5707964	1.5707964	0.9891456	-0.08433311	0	0.32232586	0.94016486	0	0.0028833954	0.9996374	0	0.66	100	2e-09	-100	-20
0	0.43806547	0.6184683	0	-2.3516012e-17	-2.5846625e-17	0	3.1415927	1.5707964	0.9891361	-0.08444619	0	0.32217622	0.94021374	0	0.002884055	0.9996374	0	0.66	100	2e-09	-100	-20
0	0.43820962	0.6184703	0	-2.351601e-17	-2.5846625e-17	0	4.712389	1.5707964	0.98914814	-0.08430238	0	0.3225983	0.9400759	0	0.0028824233	0.9996374	0	0.66	100	2e-09	-100	-20
0	0.019981172	0.98998034	0	-2.3505904e-17	-2.5847053e-17	1.5707964	0	1.5707964	-0.087217025	0.988863	0	0.14574216	0.98142403	0	0.0014183765	0.9996539	0	0.66	100	2e-09	-100	-20
0	0.020018077	0.9899826	0	-2.3505904e-17	-2.584705e-17	1.5707964	1.5707964	1.5707964	-0.08711858	0.9888715	0	0.14575443	0.98142225	0	0.0014183905	0.9996539	0	0.66	100	2e-09	-100	-20
0	0.019706426	0.9899745	0	-2.3505904e-17	-2.584705e-17	1.5707964	3.1415927	1.5707964	-0.087803006	0.9888127	0	0.14550352	0.98145723	0	0.0014187676	0.9996538	0	0.66	100	2e-09	-100	-20
0	0.019977007	0.98998034	0	-2.3505904e-17	-2.584705e-17	1.5707964	4.712389	1.5707964	-0.08722427	0.98886245	0	0.1457369	0.9814247	0	0.0014183879	0.9996538	0	0.66	100	2e-09	-100	-20
0	-0.33951157	0.6364959	0	-2.3562577e-17	-2.5846957e-17	3.1415927	0	1.5707964	-0.98967713	-0.079978526	0	-0.031655364	0.9898159	0	0.0027977831	0.99965024	0	0.66	100	2e-09	-100	-20
0	-0.33954304	0.63650286	0	-2.3562574e-17	-2.5846952e-17	3.1415927	1.5707964	1.5707964	-0.9896791	-0.0799535	0	-0.031747967	0.98981184	0	0.0027979796	0.99965024	0	0.66	100	2e-09	-100	-20
0	-0.3395753	0.63649523	0	-2.3562574e-17	-2.5846952e-17	3.1415927	3.1415927	1.5707964	-0.98967767	-0.07997184	0	-0.03184639	0.9898074	0	0.002798249	0.99965024	0	0.66	100	2e-09	-100	-20
0	-0.33957672	0.6364288	0	-2.3562574e-17	-2.5846956e-17	3.1415927	4.712389	1.5707964	-0.9896621	-0.08017032	0	-0.031866666	0.9898065	0	0.002798574	0.99965024	0	0.66	100	2e-09	-100	-20
0	0.0151110925	0.33140907	0	-2.355646e-17	-2.5846522e-17	4.712389	0	1.5707964	-0.08043536	-0.98971045	0	0.12166327	0.9843041	0	0.0041053523	0.99963355	0	0.66	100	2e-09	-100	-20
0	0.015069305	0.33141273	0	-2.3556458e-17	-2.5846525e-17	4.712389	1.5707964	1.5707964	-0.08052359	-0.9897035	0	0.12162608	0.9843083	0	0.0041053966	0.99963355	0	0.66	100	2e-09	-100	-20
0	0.014853518	0.3314318	0	-2.3556458e-17	-2.5846525e-17	4.712389	3.1415927	1.5707964	-0.0809985	-0.9896658	0	0.1214535	0.98432785	0	0.0041055554	0.99963355	0	0.66	100	2e-09	-100	-20
0	0.015055467	0.331414	0	-2.355646e-17	-2.5846525e-17	4.712389	4.712389	1.5707964	-0.080552384	-0.9897012	0	0.12161337	0.9843098	0	0.004105413	0.99963355	0	0.66	100	2e-09	-100	-20
0	0.40668237	0.621249	0	-2.3583196e-17	-2.5845913e-17	0	0	1.5707964	0.9875451	-0.1019263	0	0.2300809	0.9660637	0	0.0024212517	0.99960995	0	0.66	100	2e-09	-100	-10
0	0.40667358	0.62125796	0	-2.3583199e-17	-2.5845913e-17	0	1.5707964	1.5707964	0.98754704	-0.10190608	0	0.2300524	0.9660701	0	0.0024213023	0.99960995	0	0.66	100	2e-09	-100	-10
0	0.4066017	0.62116754	0	-2.3583196e-17	-2.5845917e-17	0	3.1415927	1.5707964	0.9875155	-0.1022201	0	0.22986756	0.9661128	0	0.0024221167	0.99960995	0	0.66	100	2e-09	-100	-10
0	0.40666237	0.6212079	0	-2.3583196e-17	-2.5845913e-17	0	4.712389	1.5707964	0.98753154	-0.10206087	0	0.23003411	0.9660744	0	0.0024215183	0.99960995	0	0.66	100	2e-09	-100	-10
0	-0.0052939947	0.99245805	0	-2.3570338e-17	-2.584629e-17	1.5707964	0	1.5707964	-0.090073615	0.98857135	0	0.073227845	0.9891785	0	0.00096378394	0.99962443	0	0.66	100	2e-09	-100	-10
0	-0.0052964296	0.99245805	0	-2.3570338e-17	-2.5846287e-17	1.5707964	1.5707964	1.5707964	-0.09007878	0.98857087	0	0.07322572	0.9891787	0	0.00096378644	0.99962443	0	0.66	100	2e-09	-100	-10
0	-0.0055175954	0.9924471	0	-2.3570338e-17	-2.5846287e-17	1.5707964	3.1415927	1.5707964	-0.09057846	0.9885266	0	0.07306175	0.98919	0	0.0009639184	0.9996245	0	0.66	100	2e-09	-100	-10
0	-0.005554155	0.99244523	0	-2.3570338e-17	-2.584629e-17	1.5707964	4.712389	1.5707964	-0.090661004	0.9885192	0	0.073034585	0.9891918	0	0.00096394034	0.99962443	0	0.66	100	2e-09	-100	-10
0	-0.35792553	0.6314817	0	-2.3631324e-17	-2.5846259e-17	3.1415927	0	1.5707964	-0.98864186	-0.09176688	0	-0.08715831	0.98658866	0	0.0020235665	0.99962324	0	0.66	100	2e-09	-100	-10
0	-0.35796657	0.63149506	0	-2.3631326e-17	-2.5846259e-17	3.1415927	1.5707964	1.5707964	-0.9886466	-0.09171455	0	-0.08727688	0.98657656	0	0.002023773	0.99962324	0	0.66	100	2e-09	-100	-10
0	-0.35798842	0.6315134	0	-2.3631326e-17	-2.5846256e-17	3.1415927	3.1415927	1.5707964	-0.98865217	-0.091653325	0	-0.08733692	0.9865705	0	0.0020238364	0.99962324	0	0.66	100	2e-09	-100	-10
0	-0.35792464	0.63150775	0	-2.3631326e-17	-2.5846256e-17	3.1415927	4.712389	1.5707964	-0.98864883	-0.091689594	0	-0.087148525	0.9865897	0	0.002023453	0.99962324	0	0.66	100	2e-09	-100	-10
0	-0.0064664735	0.33337623	0	-2.36287e-17	-2.5845913e-17	4.712389	0	1.5707964	-0.07946213	-0.98980325	0	0.056848437	0.990322	0	0.0032142745	0.9996098	0	0.66	100	2e-09	-100	-10
0	-0.006427745	0.3333735	0	-2.36287e-17	-2.5845913e-17	4.712389	1.5707964	1.5707964	-0.07937446	-0.98981005	0	0.056876965	0.9903206	0	0.0032142666	0.9996098	0	0.66	100	2e-09	-100	-10
0	-0.0066388464	0.33338848	0	-2.36287e-17	-2.5845913e-17	4.712389	3.1415927	1.5707964	-0.079854146	-0.9897726	0	0.056723308	0.990328	0	0.0032143015	0.9996098	0	0.66	100	2e-09	-100	-10
0	-0.0064656944	0.3333762	0	-2.36287e-17	-2.5845917e-17	4.712389	4.712389	1.5707964	-0.079460345	-0.98980343	0	0.05684898	0.990322	0	0.0032142745	0.9996098	0	0.66	100	2e-09	-100	-10
0	0.3769168	0.62238955	0	-2.3620968e-17	-2.5846092e-17	0	0	1.5707964	0.9862603	-0.114014275	0	0.14401577	0.98156595	0	0.0004743057	0.9996168	0	0.66	100	2e-09	-100	0
0	0.37691736	0.6223921	0	-2.362097e-17	-2.5846092e-17	0	1.5707964	1.5707964	0.9862612	-0.11400644	0	0.14401661	0.9815659	0	0.00047429718	0.9996168	0	0.66	100	2e-09	-100	0
0	0.3769151	0.62238866	0	-2.3620968e-17	-2.5846095e-17	0	3.1415927	1.5707964	0.9862598	-0.11401752	0	0.14401105	0.9815666	0	0.00047431624	0.99961686	0	0.66	100	2e-09	-100	0
0	0.37691456	0.62238365	0	-2.3620973e-17	-2.5846092e-17	0	4.712389	1.5707964	0.98625815	-0.114032574	0	0.14401115	0.9815668	0	0.00047432995	0.9996168	0	0.66	100	2e-09	-100	0
0	-0.03627111	0.9930357	0	-2.360769e-17	-2.584625e-17	1.5707964	0	1.5707964	-0.09840608	0.98776865	0	-0.009423809	0.99171525	0	-0.0009834337	0.99962294	0	0.66	100	2e-09	-100	0