# t (s)	mx ()	my ()	mz ()	E_total (J)	E_Zeeman (J)	a1 (rad)	a2 (rad)	a3 (rad)	m.region1x ()	m.region1y ()	m.region1z ()	m.region2x ()	m.region2y ()	m.region2z ()	m.region3x ()	m.region3y ()	m.region3z ()	roundness ()	size (m)	Cell_size (m)	var2-s (nm)	var1-d (nm)
0	0.33326796	0.6209871	0	-2.3509997e-17	-2.5846838e-17	0	0	1.5707964	0.98465586	-0.12742305	0	0.017752653	0.9907388	0	-0.0026046245	0.9996456	0	0.66	100	2e-09	20	-100
0	0.33326903	0.62100846	0	-2.3509997e-17	-2.5846838e-17	0	1.5707964	1.5707964	0.98466384	-0.12735923	0	0.017747732	0.9907388	0	-0.0026046499	0.9996456	0	0.66	100	2e-09	20	-100
0	0.33322087	0.6209369	0	-2.351e-17	-2.584684e-17	0	3.1415927	1.5707964	0.9846365	-0.12757693	0	0.017630264	0.9907419	0	-0.0026042066	0.99964565	0	0.66	100	2e-09	20	-100
0	0.33324212	0.62097955	0	-2.3509993e-17	-2.5846838e-17	0	4.712389	1.5707964	0.98465276	-0.1274476	0	0.017677985	0.99074066	0	-0.0026044114	0.9996456	0	0.66	100	2e-09	20	-100
0	-0.09846444	0.98724425	0	-2.3498084e-17	-2.5846779e-17	1.5707964	0	1.5707964	-0.118153475	0.9856311	0	-0.17384633	0.97645813	0	-0.003393509	0.9996434	0	0.66	100	2e-09	20	-100
0	-0.09838405	0.9872545	0	-2.3498085e-17	-2.5846779e-17	1.5707964	1.5707964	1.5707964	-0.11797933	0.9856512	0	-0.17377917	0.97646934	0	-0.0033936214	0.9996433	0	0.66	100	2e-09	20	-100
0	-0.09886969	0.9871914	0	-2.3498085e-17	-2.5846779e-17	1.5707964	3.1415927	1.5707964	-0.11903176	0.98552877	0	-0.17418437	0.9764021	0	-0.0033929404	0.9996434	0	0.66	100	2e-09	20	-100
0	-0.09880869	0.9871994	0	-2.3498084e-17	-2.5846779e-17	1.5707964	4.712389	1.5707964	-0.11889949	0.9855442	0	-0.17413357	0.9764105	0	-0.0033930254	0.9996433	0	0.66	100	2e-09	20	-100
0	-0.44462973	0.61093783	0	-2.357064e-17	-2.5846797e-17	3.1415927	0	1.5707964	-0.9878326	-0.09976461	0	-0.3433976	0.9329342	0	-0.002659076	0.999644	0	0.66	100	2e-09	20	-100
0	-0.44464222	0.6109482	0	-2.357064e-17	-2.5846797e-17	3.1415927	1.5707964	1.5707964	-0.9878368	-0.09972142	0	-0.34343094	0.93292207	0	-0.0026590081	0.999644	0	0.66	100	2e-09	20	-100
0	-0.5561617	0.5414732	0	-2.3568885e-17	-2.5846835e-17	3.1415927	3.1415927	1.5707964	-0.99056387	-0.066255584	0	-0.6763165	0.69102967	0	-0.0016046067	0.9996456	0	0.66	100	2e-09	20	-100
0	-0.5562881	0.54137754	0	-2.3568887e-17	-2.5846835e-17	3.1415927	4.712389	1.5707964	-0.9905734	-0.066108115	0	-0.6766881	0.69059527	0	-0.0016027404	0.9996455	0	0.66	100	2e-09	20	-100
0	-0.084509194	0.33036187	0	-2.3565514e-17	-2.584681e-17	4.712389	0	1.5707964	-0.09300596	-0.9886665	0	-0.15837558	0.98010767	0	-0.0021460275	0.9996445	0	0.66	100	2e-09	20	-100
0	-0.08455983	0.33036226	0	-2.3565515e-17	-2.584681e-17	4.712389	1.5707964	1.5707964	-0.09310525	-0.98865753	0	-0.15842831	0.9800997	0	-0.0021459358	0.9996445	0	0.66	100	2e-09	20	-100
0	-0.08478319	0.33036807	0	-2.3565515e-17	-2.584681e-17	4.712389	3.1415927	1.5707964	-0.093595006	-0.9886125	0	-0.15860884	0.9800722	0	-0.0021457165	0.9996446	0	0.66	100	2e-09	20	-100
0	-0.08478081	0.33036798	0	-2.3565515e-17	-2.584681e-17	4.712389	4.712389	1.5707964	-0.09358976	-0.988613	0	-0.15860696	0.9800724	0	-0.0021457188	0.9996446	0	0.66	100	2e-09	20	-100
0	0.3393237	0.62148446	0	-2.3487089e-17	-2.5847032e-17	0	0	1.5707964	0.9848491	-0.12588333	0	0.03536655	0.9906833	0	-0.0022446846	0.9996533	0	0.66	100	2e-09	20	-102
0	0.339324	0.6214892	0	-2.3487089e-17	-2.5847035e-17	0	1.5707964	1.5707964	0.98485094	-0.12586884	0	0.035365783	0.9906834	0	-0.002244691	0.9996533	0	0.66	100	2e-09	20	-102
0	0.33932889	0.62150085	0	-2.3487087e-17	-2.5847032e-17	0	3.1415927	1.5707964	0.9848554	-0.1258336	0	0.035376035	0.990683	0	-0.0022447377	0.9996532	0	0.66	100	2e-09	20	-102
0	0.30894288	0.051908102	0	-2.309379e-17	-2.5847245e-17	0	4.712389	1.5707964	0.9825792	0.14224763	0	-0.0593442	-0.98618466	0	0.003593793	0.99966145	0	0.66	100	2e-09	20	-102
0	-0.09243483	0.98821115	0	-2.3473811e-17	-2.5846975e-17	1.5707964	0	1.5707964	-0.11324619	0.9861888	0	-0.1610395	0.9787933	0	-0.0030187734	0.999651	0	0.66	100	2e-09	20	-102
0	-0.09253262	0.98819906	0	-2.3473811e-17	-2.584698e-17	1.5707964	1.5707964	1.5707964	-0.113455065	0.9861656	0	-0.16112414	0.9787804	0	-0.0030186365	0.9996511	0	0.66	100	2e-09	20	-102
0	-0.09292446	0.9881504	0	-2.3473811e-17	-2.5846979e-17	1.5707964	3.1415927	1.5707964	-0.11429139	0.98607206	0	-0.16146389	0.97872794	0	-0.0030180858	0.999651	0	0.66	100	2e-09	20	-102
0	-0.092537634	0.98819834	0	-2.3473811e-17	-2.5846979e-17	1.5707964	4.712389	1.5707964	-0.113463335	0.9861647	0	-0.16113095	0.9787793	0	-0.0030186214	0.9996511	0	0.66	100	2e-09	20	-102
0	-0.55730134	0.54063433	0	-2.3543415e-17	-2.5847004e-17	3.1415927	0	1.5707964	-0.9906495	-0.064938664	0	-0.6800055	0.6871898	0	-0.001248957	0.9996521	0	0.66	100	2e-09	20	-102
0	-0.44186443	0.6119675	0	-2.354528e-17	-2.5846987e-17	3.1415927	1.5707964	1.5707964	-0.98785627	-0.09952398	0	-0.33544853	0.935775	0	-0.0022883883	0.9996514	0	0.66	100	2e-09	20	-102
0	-0.55729973	0.540636	0	-2.3543415e-17	-2.5847004e-17	3.1415927	3.1415927	1.5707964	-0.99064946	-0.06493939	0	-0.68000066	0.6871953	0	-0.0012489811	0.9996521	0	0.66	100	2e-09	20	-102
0	-0.5573007	0.5406367	0	-2.3543415e-17	-2.5847002e-17	3.1415927	4.712389	1.5707964	-0.99064994	-0.06493425	0	-0.68000317	0.6871924	0	-0.0012489717	0.99965197	0	0.66	100	2e-09	20	-102
0	-0.079079874	0.33093432	0	-2.3540928e-17	-2.5847002e-17	4.712389	0	1.5707964	-0.089484155	-0.9889849	0	-0.14597513	0.982136	0	-0.0017803555	0.9996519	0	0.66	100	2e-09	20	-102
0	-0.07905699	0.33093366	0	-2.3540928e-17	-2.5847002e-17	4.712389	1.5707964	1.5707964	-0.08943377	-0.9889894	0	-0.14595684	0.9821385	0	-0.0017803753	0.9996519	0	0.66	100	2e-09	20	-102
0	-0.07930363	0.33093902	0	-2.354093e-17	-2.5847002e-17	4.712389	3.1415927	1.5707964	-0.089958474	-0.9889431	0	-0.14617233	0.98210824	0	-0.0017800997	0.9996519	0	0.66	100	2e-09	20	-102
0	-0.07931184	0.33093917	0	-2.3540928e-17	-2.5847002e-17	4.712389	4.712389	1.5707964	-0.08997558	-0.98894155	0	-0.14617985	0.9821071	0	-0.0017800898	0.9996519	0	0.66	100	2e-09	20	-102
0	0.34481174	0.6218645	0	-2.3468586e-17	-2.5847167e-17	0	0	1.5707964	0.985036	-0.12437556	0	0.05136024	0.9903106	0	-0.0019610715	0.99965835	0	0.66	100	2e-09	20	-104
0	0.34480843	0.6218643	0	-2.3468583e-17	-2.5847167e-17	0	1.5707964	1.5707964	0.98503596	-0.124376416	0	0.051350318	0.99031115	0	-0.0019610482	0.9996583	0	0.66	100	2e-09	20	-104
0	-0.074138425	0.3313892	0	-2.3520853e-17	-2.5847133e-17	0	3.1415927	1.5707964	-0.08606915	-0.98928183	0	-0.13485356	0.98379225	0	-0.0014925549	0.99965703	0	0.66	100	2e-09	20	-104
0	0.34657758	0.049051255	0	-2.3109555e-17	-2.5847536e-17	0	4.712389	1.5707964	0.98347294	0.13589215	0	0.053292792	-0.9884111	0	0.0029670938	0.9996727	0	0.66	100	2e-09	20	-104
0	-0.08717702	0.9889982	0	-2.3454071e-17	-2.584712e-17	1.5707964	0	1.5707964	-0.10911065	0.98664045	0	-0.14969987	0.9806976	0	-0.0027205567	0.9996565	0	0.66	100	2e-09	20	-104
0	-0.08717462	0.9889985	0	-2.3454071e-17	-2.584712e-17	1.5707964	1.5707964	1.5707964	-0.10910575	0.986641	0	-0.1496975	0.98069793	0	-0.0027205604	0.9996566	0	0.66	100	2e-09	20	-104
0	-0.08751393	0.98895836	0	-2.3454071e-17	-2.584712e-17	1.5707964	3.1415927	1.5707964	-0.109825194	0.9865637	0	-0.14999652	0.980655	0	-0.0027201036	0.9996565	0	0.66	100	2e-09	20	-104
0	-0.43976712	0.612841	0	-2.3524512e-17	-2.584712e-17	1.5707964	4.712389	1.5707964	-0.9879063	-0.09901207	0	-0.32940122	0.93787855	0	-0.0019938417	0.9996566	0	0.66	100	2e-09	20	-104
0	-0.439563	0.6128111	0	-2.3524512e-17	-2.5847123e-17	3.1415927	0	1.5707964	-0.98787796	-0.09930366	0	-0.32881585	0.9380802	0	-0.0019951886	0.9996566	0	0.66	100	2e-09	20	-104
0	-0.43952277	0.6128363	0	-2.3524512e-17	-2.584712e-17	3.1415927	1.5707964	1.5707964	-0.9878812	-0.09927072	0	-0.3286916	0.93812287	0	-0.0019955395	0.9996567	0	0.66	100	2e-09	20	-104
0	-0.5586478	0.5396561	0	-2.3522611e-17	-2.5847123e-17	3.1415927	3.1415927	1.5707964	-0.9907324	-0.06363898	0	-0.6842364	0.6829506	0	-0.0009747303	0.9996567	0	0.66	100	2e-09	20	-104
0	-0.55864847	0.5396545	0	-2.352261e-17	-2.5847123e-17	3.1415927	4.712389	1.5707964	-0.9907323	-0.06364178	0	-0.6842383	0.68294847	0	-0.0009747189	0.9996566	0	0.66	100	2e-09	20	-104
0	-0.07418239	0.33139	0	-2.3520853e-17	-2.5847133e-17	4.712389	0	1.5707964	-0.086161	-0.989274	0	-0.13489366	0.983787	0	-0.0014925041	0.99965703	0	0.66	100	2e-09	20	-104
0	-0.07416936	0.33138967	0	-2.3520853e-17	-2.5847133e-17	4.712389	1.5707964	1.5707964	-0.086132765	-0.9892764	0	-0.13488281	0.9837885	0	-0.0014925157	0.99965703	0	0.66	100	2e-09	20	-104
0	-0.55860114	0.5396865	0	-2.352261e-17	-2.5847123e-17	4.712389	3.1415927	1.5707964	-0.9907285	-0.06370293	0	-0.6840995	0.6831057	0	-0.00097535504	0.9996566	0	0.66	100	2e-09	20	-104
0	-0.07444226	0.3313951	0	-2.3520853e-17	-2.5847133e-17	4.712389	4.712389	1.5707964	-0.08670376	-0.9892279	0	-0.13513081	0.98375595	0	-0.0014922052	0.99965703	0	0.66	100	2e-09	20	-104
0	0.34975845	0.62199837	0	-2.3453212e-17	-2.5847265e-17	0	0	1.5707964	0.98515826	-0.12338239	0	0.06584817	0.9897152	0	-0.0017311003	0.9996621	0	0.66	100	2e-09	20	-106
0	0.34979948	0.6221639	0	-2.3453212e-17	-2.5847263e-17	0	1.5707964	1.5707964	0.98521894	-0.12288124	0	0.06591098	0.98971075	0	-0.001731533	0.9996622	0	0.66	100	2e-09	20	-106
0	0.3497278	0.622036	0	-2.3453212e-17	-2.5847263e-17	0	3.1415927	1.5707964	0.98517096	-0.1232766	0	0.065743305	0.9897223	0	-0.0017309339	0.9996621	0	0.66	100	2e-09	20	-106
0	0.37090436	0.049432326	0	-2.3124418e-17	-2.5847723e-17	0	4.712389	1.5707964	0.98404676	0.13164224	0	0.12621157	-0.98302513	0	0.0024546885	0.9996798	0	0.66	100	2e-09	20	-106
0	-0.08228036	0.9896767	0	-2.343757e-17	-2.5847224e-17	1.5707964	0	1.5707964	-0.104974315	0.98707515	0	-0.1393901	0.9822944	0	-0.0024766743	0.9996606	0	0.66	100	2e-09	20	-106
0	-0.08231831	0.9896725	0	-2.3437574e-17	-2.5847224e-17	1.5707964	1.5707964	1.5707964	-0.1050602	0.9870662	0	-0.13941813	0.9822907	0	-0.0024766426	0.9996606	0	0.66	100	2e-09	20	-106
0	-0.08265749	0.9896341	0	-2.3437574e-17	-2.5847224e-17	1.5707964	3.1415927	1.5707964	-0.10576382	0.9869934	0	-0.13973248	0.9822486	0	-0.0024761737	0.9996606	0	0.66	100	2e-09	20	-106
0	-0.43753555	0.613645	0	-2.3507042e-17	-2.5847222e-17	1.5707964	4.712389	1.5707964	-0.9879264	-0.09880605	0	-0.32292244	0.9400808	0	-0.0017577983	0.9996604	0	0.66	100	2e-09	20	-106
0	-0.4375168	0.6135655	0	-2.3507045e-17	-2.5847224e-17	3.1415927	0	1.5707964	-0.9879023	-0.09905558	0	-0.32289058	0.94009155	0	-0.00175771	0.99966055	0	0.66	100	2e-09	20	-106
0	-0.4375246	0.6135676	0	-2.3507042e-17	-2.5847222e-17	3.1415927	1.5707964	1.5707964	-0.98790365	-0.09904183	0	-0.32291257	0.94008416	0	-0.0017576644	0.99966055	0	0.66	100	2e-09	20	-106
0	-0.56022406	0.5384997	0	-2.3505173e-17	-2.5847212e-17	3.1415927	3.1415927	1.5707964	-0.9908133	-0.062346127	0	-0.6891022	0.67818516	0	-0.00075691	0.99966025	0	0.66	100	2e-09	20	-106
0	-0.56022304	0.5385001	0	-2.3505174e-17	-2.5847214e-17	3.1415927	4.712389	1.5707964	-0.990813	-0.062348403	0	-0.6890993	0.6781884	0	-0.00075692195	0.99966025	0	0.66	100	2e-09	20	-106
0	-0.06977875	0.33175537	0	-2.3504008e-17	-2.5847227e-17	4.712389	0	1.5707964	-0.08308254	-0.9895319	0	-0.12499386	0.98513734	0	-0.0012598265	0.9996607	0	0.66	100	2e-09	20	-106
0	-0.06977622	0.33175555	0	-2.3504008e-17	-2.584723e-17	4.712389	1.5707964	1.5707964	-0.083079785	-0.9895321	0	-0.124989055	0.98513794	0	-0.0012598363	0.99966073	0	0.66	100	2e-09	20	-106
0	-0.069985785	0.33175915	0	-2.3504005e-17	-2.584723e-17	4.712389	3.1415927	1.5707964	-0.083508976	-0.98949695	0	-0.12518878	0.98511374	0	-0.0012595882	0.9996607	0	0.66	100	2e-09	20	-106
0	-0.06998403	0.33175912	0	-2.3504005e-17	-2.5847227e-17	4.712389	4.712389	1.5707964	-0.08350541	-0.98949724	0	-0.1251871	0.9851139	0	-0.0012595906	0.9996607	0	0.66	100	2e-09	20	-106
0	0.3543669	0.62238705	0	-2.344018e-17	-2.584734e-17	0	0	1.5707964	0.98539203	-0.121449105	0	0.07925047	0.98894525	0	-0.0015418618	0.9996651	0	0.66	100	2e-09	20	-108
0	0.35435575	0.6223832	0	-2.344018e-17	-2.584734e-17	0	1.5707964	1.5707964	0.9853903	-0.12146337	0	0.07921855	0.98894787	0	-0.0015417885	0.9996651	0	0.66	100	2e-09	20	-108
0	0.35430336	0.6222487	0	-2.3440183e-17	-2.5847338e-17	0	3.1415927	1.5707964	0.985341	-0.12187579	0	0.079110466	0.98895687	0	-0.0015413257	0.9996651	0	0.66	100	2e-09	20	-108
0	0.38861474	0.05086991	0	-2.3137984e-17	-2.584783e-17	0	4.712389	1.5707964	0.9844516	0.12855846	0	0.17934984	-0.9756328	0	0.0020427674	0.9996841	0	0.66	100	2e-09	20	-108
0	-0.078234345	0.9902088	0	-2.3423503e-17	-2.5847306e-17	1.5707964	0	1.5707964	-0.101966605	0.9873805	0	-0.13046443	0.9835823	0	-0.0022719738	0.9996638	0	0.66	100	2e-09	20	-108
0	-0.07793291	0.9902414	0	-2.3423503e-17	-2.5847306e-17	1.5707964	1.5707964	1.5707964	-0.10135803	0.9874412	0	-0.13016829	0.98361933	0	-0.002272408	0.9996638	0	0.66	100	2e-09	20	-108
0	-0.56210303	0.5371233	0	-2.3490282e-17	-2.5847286e-17	1.5707964	3.1415927	1.5707964	-0.9909007	-0.06091333	0	-0.6948294	0.6726204	0	-0.0005789313	0.99966294	0	0.66	100	2e-09	20	-108
0	0.3543571	0.6223859	0	-2.344018e-17	-2.584734e-17	1.5707964	4.712389	1.5707964	0.9853914	-0.12145471	0	0.07922163	0.98894763	0	-0.0015418	0.9996651	0	0.66	100	2e-09	20	-108
0	-0.43586335	0.61421984	0	-2.3492058e-17	-2.5847298e-17	3.1415927	0	1.5707964	-0.9879377	-0.09869177	0	-0.31809235	0.9416879	0	-0.0015599094	0.9996635	0	0.66	100	2e-09	20	-108
0	-0.43586498	0.61423177	0	-2.3492055e-17	-2.5847298e-17	3.1415927	1.5707964	1.5707964	-0.98794127	-0.09865534	0	-0.31809393	0.9416872	0	-0.0015599299	0.9996634	0	0.66	100	2e-09	20	-108
0	-0.562103	0.5371086	0	-2.3490282e-17	-2.5847286e-17	3.1415927	3.1415927	1.5707964	-0.9908982	-0.060955368	0	-0.6948318	0.6726182	0	-0.00057889207	0.999663	0	0.66	100	2e-09	20	-108
0	-0.56180674	0.5373314	0	-2.3490282e-17	-2.5847286e-17	3.1415927	4.712389	1.5707964	-0.9908809	-0.061243363	0	-0.69395655	0.6735746	0	-0.00058262335	0.99966294	0	0.66	100	2e-09	20	-108
0	-0.06579998	0.33205056	0	-2.3489585e-17	-2.5847301e-17	4.712389	0	1.5707964	-0.08022058	-0.98976314	0	-0.11611152	0.9862512	0	-0.0010678417	0.99966365	0	0.66	100	2e-09	20	-108
0	-0.06579874	0.3320505	0	-2.348959e-17	-2.5847303e-17	4.712389	1.5707964	1.5707964	-0.080218	-0.98976344	0	-0.11611034	0.98625124	0	-0.001067843	0.9996637	0	0.66	100	2e-09	20	-108
0	-0.066000864	0.332054	0	-2.3489587e-17	-2.5847306e-17	4.712389	3.1415927	1.5707964	-0.08062914	-0.9897309	0	-0.11630585	0.9862292	0	-0.0010676124	0.99966365	0	0.66	100	2e-09	20	-108
0	-0.065800115	0.33205053	0	-2.3489585e-17	-2.5847306e-17	4.712389	4.712389	1.5707964	-0.08022089	-0.98976314	0	-0.11611161	0.9862512	0	-0.0010678415	0.9996637	0	0.66	100	2e-09	20	-108
0	0.35847077	0.62242717	0	-2.3428963e-17	-2.5847399e-17	0	0	1.5707964	0.9855096	-0.12046963	0	0.09128454	0.98808384	0	-0.0013819189	0.9996672	0	0.66	100	2e-09	20	-110
0	0.35853916	0.62253654	0	-2.342896e-17	-2.5847399e-17	0	1.5707964	1.5707964	0.9855502	-0.12012623	0	0.09144977	0.9880685	0	-0.0013824356	0.9996672	0	0.66	100	2e-09	20	-110
0	0.3584568	0.62240225	0	-2.342896e-17	-2.5847399e-17	0	3.1415927	1.5707964	0.9855002	-0.12054733	0	0.09125191	0.9880869	0	-0.0013818105	0.9996672	0	0.66	100	2e-09	20	-110
0	0.4019838	0.052645247	0	-2.3150244e-17	-2.5847892e-17	0	4.712389	1.5707964	0.9847412	0.12630582	0	0.21949607	-0.96805656	0	0.0017140857	0.9996864	0	0.66	100	2e-09	20	-110
0	-0.073848285	0.99073625	0	-2.341133e-17	-2.5847371e-17	1.5707964	0	1.5707964	-0.097732656	0.98779523	0	-0.12171366	0.9847474	0	-0.0020985347	0.9996663	0	0.66	100	2e-09	20	-110
0	-0.073905066	0.9907305	0	-2.341133e-17	-2.5847368e-17	1.5707964	1.5707964	1.5707964	-0.09784846	0.98778415	0	-0.12176829	0.98474103	0	-0.002098461	0.9996663	0	0.66	100	2e-09	20	-110
0	-0.5642577	0.53548586	0	-2.3477386e-17	-2.5847344e-17	1.5707964	3.1415927	1.5707964	-0.9909837	-0.059522323	0	-0.70135844	0.6663148	0	-0.0004308042	0.99966526	0	0.66	100	2e-09	20	-110
0	-0.56425905	0.5354848	0	-2.3477386e-17	-2.5847344e-17	1.5707964	4.712389	1.5707964	-0.9909838	-0.059521273	0	-0.70136243	0.66631037	0	-0.00043078756	0.9996652	0	0.66	100	2e-09	20	-110
0	-0.43437138	0.61479867	0	-2.347901e-17	-2.5847363e-17	3.1415927	0	1.5707964	-0.98796815	-0.09837776	0	-0.31375265	0.94310766	0	-0.0013934013	0.999666	0	0.66	100	2e-09	20	-110
0	-0.43436587	0.6148164	0	-2.347901e-17	-2.5847363e-17	3.1415927	1.5707964	1.5707964	-0.9879726	-0.09833107	0	-0.3137316	0.94311464	0	-0.0013934787	0.9996659	0	0.66	100	2e-09	20	-110
0	-0.5642529	0.53548956	0	-2.3477384e-17	-2.5847344e-17	3.1415927	3.1415927	1.5707964	-0.9909835	-0.059526287	0	-0.7013443	0.66632986	0	-0.00043086233	0.9996652	0	0.66	100	2e-09	20	-110
0	-0.5639199	0.5357241	0	-2.3477384e-17	-2.5847343e-17	3.1415927	4.712389	1.5707964	-0.99096286	-0.05987844	0	-0.7003617	0.66738546	0	-0.00043484874	0.99966514	0	0.66	100	2e-09	20	-110
0	-0.062180214	0.3322902	0	-2.3477058e-17	-2.584736e-17	4.712389	0	1.5707964	-0.07753178	-0.98997307	0	-0.108101875	0.9871778	0	-0.0009070059	0.999666	0	0.66	100	2e-09	20	-110
0	-0.062186	0.3322903	0	-2.3477058e-17	-2.5847363e-17	4.712389	1.5707964	1.5707964	-0.07754318	-0.98997223	0	-0.10810782	0.9871772	0	-0.00090699946	0.999666	0	0.66	100	2e-09	20	-110
0	-0.062420394	0.3322941	0	-2.3477058e-17	-2.5847363e-17	4.712389	3.1415927	1.5707964	-0.078013785	-0.9899363	0	-0.10834065	0.9871526	0	-0.0009067343	0.9996658	0	0.66	100	2e-09	20	-110
0	-0.06238378	0.3322935	0	-2.3477058e-17	-2.5847363e-17	4.712389	4.712389	1.5707964	-0.07794075	-0.98994184	0	-0.108303815	0.9871565	0	-0.0009067768	0.9996659	0	0.66	100	2e-09	20	-110
0	0.6300974	0.46105146	0	-2.3359964e-17	-2.5847788e-17	0	0	1.5707964	0.9918998	-0.04006955	0	0.90028685	0.4235416	0	-0.0018946033	0.9996824	0	0.66	100	2e-09	20	-112
0	0.36239943	0.62266517	0	-2.341919e-17	-2.5847445e-17	0	1.5707964	1.5707964	0.9857092	-0.1187805	0	0.1027362	0.9871071	0	-0.0012470075	0.9996691	0	0.66	100	2e-09	20	-112
0	0.36231706	0.62252325	0	-2.341919e-17	-2.5847445e-17	0	3.1415927	1.5707964	0.985657	-0.119226605	0	0.10254062	0.9871272	0	-0.0012463973	0.9996691	0	0.66	100	2e-09	20	-112
0	0.41244394	0.054464743	0	-2.3161282e-17	-2.5847925e-17	0	4.712389	1.5707964	0.98495704	0.124601714	0	0.25092465	-0.9608952	0	0.0014502206	0.9996878	0	0.66	100	2e-09	20	-112
0	0.38254908	0.77623594	0	-2.3290116e-17	-2.5847801e-17	1.5707964	0	1.5707964	0.22458503	0.96762824	0	0.9258456	0.3613966	0	-0.0027833967	0.9996827	0	0.66	100	2e-09	20	-112
0	-0.07020701	0.9911521	0	-2.3400673e-17	-2.5847424e-17	1.5707964	1.5707964	1.5707964	-0.0945438	0.9880958	0	-0.11412899	0.98569214	0	-0.0019482428	0.99966824	0	0.66	100	2e-09	20	-112
0	-0.56670785	0.5336998	0	-2.3466108e-17	-2.5847396e-17	1.5707964	3.1415927	1.5707964	-0.9910853	-0.057769187	0	-0.7087324	0.65920144	0	-0.00030567573	0.99966717	0	0.66	100	2e-09	20	-112
0	-0.56675524	0.533571	0	-2.3466105e-17	-2.5847396e-17	1.5707964	4.712389	1.5707964	-0.9910724	-0.05800013	0	-0.70888835	0.659046	0	-0.00030486917	0.99966705	0	0.66	100	2e-09	20	-112
0	-0.43312958	0.615303	0	-2.3467526e-17	-2.5847414e-17	3.1415927	0	1.5707964	-0.98800147	-0.09803262	0	-0.3101365	0.9442737	0	-0.0012507316	0.99966794	0	0.66	100	2e-09	20	-112
0	-0.43312576	0.6153104	0	-2.3467526e-17	-2.5847414e-17	3.1415927	1.5707964	1.5707964	-0.98800313	-0.09801484	0	-0.31012332	0.944278	0	-0.0012507709	0.99966794	0	0.66	100	2e-09	20	-112
0	-0.56674826	0.53357613	0	-2.3466106e-17	-2.5847396e-17	3.1415927	3.1415927	1.5707964	-0.99107194	-0.058006503	0	-0.70886767	0.6590678	0	-0.00030495058	0.9996671	0	0.66	100	2e-09	20	-112
0	-0.5667433	0.5335799	0	-2.3466106e-17	-2.5847396e-17	3.1415927	4.712389	1.5707964	-0.9910718	-0.058010742	0	-0.70885307	0.65908325	0	-0.00030500776	0.9996671	0	0.66	100	2e-09	20	-112
0	-0.059082434	0.332489	0	-2.3466049e-17	-2.5847409e-17	4.712389	0	1.5707964	-0.07541183	-0.9901336	0	-0.101065025	0.98793286	0	-0.0007704665	0.9996679	0	0.66	100	2e-09	20	-112
0	-0.058884226	0.33248582	0	-2.3466052e-17	-2.5847409e-17	4.712389	1.5707964	1.5707964	-0.075015925	-0.99016297	0	-0.100866094	0.98795253	0	-0.00077068066	0.9996679	0	0.66	100	2e-09	20	-112
0	-0.058890063	0.332486	0	-2.3466052e-17	-2.5847409e-17	4.712389	3.1415927	1.5707964	-0.07502977	-0.990162	0	-0.100869745	0.98795223	0	-0.00077067997	0.9996679	0	0.66	100	2e-09	20	-112
0	-0.05908329	0.33248907	0	-2.3466052e-17	-2.5847409e-17	4.712389	4.712389	1.5707964	-0.07541452	-0.99013346	0	-0.1010649	0.9879329	0	-0.0007704676	0.9996679	0	0.66	100	2e-09	20	-112
0	0.63854176	0.44368964	0	-2.3359511e-17	-2.5847808e-17	0	0	1.5707964	0.9921614	-0.03272366	0	0.92518187	0.36410937	0	-0.0017178451	0.9996832	0	0.66	100	2e-09	20	-114
0	0.36595488	0.62273043	0	-2.3410601e-17	-2.5847483e-17	0	1.5707964	1.5707964	0.9858503	-0.117573485	0	0.113145076	0.98609394	0	-0.0011306268	0.99967057	0	0.66	100	2e-09	20	-114
0	0.36590123	0.6226002	0	-2.3410601e-17	-2.5847483e-17	0	3.1415927	1.5707964	0.9858034	-0.117977075	0	0.11303039	0.9861071	0	-0.0011302014	0.99967057	0	0.66	100	2e-09	20	-114
0	0.42053175	0.056154244	0	-2.3171235e-17	-2.5847938e-17	0	4.712389	1.5707964	0.9851112	0.123371586	0	0.27524552	-0.9545971	0	0.0012384889	0.99968827	0	0.66	100	2e-09	20	-114
0	0.39241034	0.7544446	0	-2.3290246e-17	-2.5847821e-17	1.5707964	0	1.5707964	0.23220643	0.9658861	0	0.94759303	0.29776406	0	-0.0025685572	0.99968356	0	0.66	100	2e-09	20	-114
0	-0.06681209	0.9915167	0	-2.3391258e-17	-2.5847465e-17	1.5707964	1.5707964	1.5707964	-0.09144752	0.988378	0	-0.10717172	0.9865019	0	-0.0018170305	0.99967	0	0.66	100	2e-09	20	-114
0	-0.64054954	0.4398016	0	-2.3455679e-17	-2.5847478e-17	1.5707964	3.1415927	1.5707964	-0.99239755	-0.026223043	0	-0.93001574	0.34595743	0	0.0007648663	0.99967045	0	0.66	100	2e-09	20	-114
0	-0.64054555	0.43981007	0	-2.3455679e-17	-2.584748e-17	1.5707964	4.712389	1.5707964	-0.9923975	-0.026228199	0	-0.930004	0.3459878	0	0.0007648054	0.9996705	0	0.66	100	2e-09	20	-114
0	-0.5693249	0.5315488	0	-2.3456164e-17	-2.5847437e-17	3.1415927	0	1.5707964	-0.99114895	-0.056653466	0	-0.7166265	0.651631	0	-0.0001992144	0.9996688	0	0.66	100	2e-09	20	-114
0	-0.43206227	0.6157687	0	-2.3457327e-17	-2.5847457e-17	3.1415927	1.5707964	1.5707964	-0.98804	-0.097630404	0	-0.3070193	0.9452669	0	-0.0011274521	0.9996696	0	0.66	100	2e-09	20	-114
0	-0.64054626	0.43980837	0	-2.3455679e-17	-2.584748e-17	3.1415927	3.1415927	1.5707964	-0.9923974	-0.026227957	0	-0.93000597	0.34598264	0	0.00076481595	0.9996705	0	0.66	100	2e-09	20	-114
0	-0.06681312	0.99151653	0	-2.3391258e-17	-2.5847465e-17	3.1415927	4.712389	1.5707964	-0.091449425	0.98837787	0	-0.10717289	0.9865017	0	-0.0018170286	0.99967	0	0.66	100	2e-09	20	-114
0	-0.055869963	0.3326463	0	-2.3456291e-17	-2.584745e-17	4.712389	0	1.5707964	-0.072655424	-0.99033546	0	-0.09430038	0.988605	0	-0.0006540886	0.9996694	0	0.66	100	2e-09	20	-114
0	-0.055856384	0.33264607	0	-2.3456294e-17	-2.5847452e-17	4.712389	1.5707964	1.5707964	-0.07262845	-0.9903373	0	-0.094286606	0.9886062	0	-0.00065410277	0.9996693	0	0.66	100	2e-09	20	-114
0	-0.056074195	0.33264917	0	-2.3456294e-17	-2.5847452e-17	4.712389	3.1415927	1.5707964	-0.07305317	-0.9903069	0	-0.09451554	0.98858505	0	-0.0006538579	0.9996694	0	0.66	100	2e-09	20	-114
0	-0.056077484	0.3326494	0	-2.3456294e-17	-2.5847452e-17	4.712389	4.712389	1.5707964	-0.07306232	-0.99030626	0	-0.09451626	0.98858505	0	-0.000653861	0.9996693	0	0.66	100	2e-09	20	-114
0	0.6429815	0.4331633	0	-2.3359513e-17	-2.5847811e-17	0	0	1.5707964	0.99229723	-0.028151814	0	0.93822896	0.3279583	0	-0.0015816113	0.9996833	0	0.66	100	2e-09	20	-116
0	0.36925733	0.622781	0	-2.3402996e-17	-2.5847516e-17	0	1.5707964	1.5707964	0.985989	-0.116373666	0	0.12281295	0.9850447	0	-0.0010299091	0.9996719	0	0.66	100	2e-09	20	-116
0	0.36920625	0.62261456	0	-2.3402996e-17	-2.5847513e-17	0	3.1415927	1.5707964	0.98593026	-0.11688483	0	0.12271792	0.9850566	0	-0.0010294686	0.9996719	0	0.66	100	2e-09	20	-116
0	0.42679197	0.057645362	0	-2.3180221e-17	-2.5847947e-17	0	4.712389	1.5707964	0.98521966	0.12250124	0	0.2940889	-0.94925356	0	0.0010672447	0.9996884	0	0.66	100	2e-09	20	-116
0	0.39737436	0.741276	0	-2.329078e-17	-2.5847826e-17	1.5707964	0	1.5707964	0.23594621	0.9650077	0	0.9585808	0.25913623	0	-0.0024038937	0.99968386	0	0.66	100	2e-09	20	-116
0	-0.063611105	0.9918404	0	-2.3382876e-17	-2.5847507e-17	1.5707964	1.5707964	1.5707964	-0.08839195	0.9886473	0	-0.10073995	0.98720247	0	-0.0017014073	0.9996714	0	0.66	100	2e-09	20	-116
0	-0.64477104	0.42936888	0	-2.344958e-17	-2.5847518e-17	1.5707964	3.1415927	1.5707964	-0.99247825	-0.022914583	0	-0.94264895	0.31134918	0	0.00081404427	0.9996721	0	0.66	100	2e-09	20	-116
0	-0.12562355	0.34301543	0	-2.3228522e-17	-2.584783e-17	1.5707964	4.712389	1.5707964	-0.116362706	0.9862635	0	-0.26161134	-0.95690125	0	0.0011033145	0.99968404	0	0.66	100	2e-09	20	-116
0	-0.43115667	0.61614716	0	-2.3448198e-17	-2.584749e-17	3.1415927	0	1.5707964	-0.98806894	-0.09732797	0	-0.3043814	0.94609886	0	-0.0010197806	0.999671	0	0.66	100	2e-09	20	-116
0	-0.43120146	0.6161517	0	-2.3448198e-17	-2.5847493e-17	3.1415927	1.5707964	1.5707964	-0.9880741	-0.097273864	0	-0.3045107	0.9460579	0	-0.0010195675	0.999671	0	0.66	100	2e-09	20	-116
0	-0.64487624	0.42915285	0	-2.344958e-17	-2.5847521e-17	3.1415927	3.1415927	1.5707964	-0.99248445	-0.022634666	0	-0.9429598	0.3104212	0	0.00081554183	0.999672	0	0.66	100	2e-09	20	-116
0	-0.6448769	0.42915154	0	-2.344958e-17	-2.5847518e-17	3.1415927	4.712389	1.5707964	-0.99248445	-0.022632696	0	-0.9429618	0.3104153	0	0.0008155515	0.999672	0	0.66	100	2e-09	20	-116
0	-0.05310289	0.33277816	0	-2.3447578e-17	-2.5847485e-17	4.712389	0	1.5707964	-0.070424296	-0.99049324	0	-0.08833074	0.98915696	0	-0.0005536138	0.9996706	0	0.66	100	2e-09	20	-116
0	-0.053094953	0.332778	0	-2.3447576e-17	-2.5847483e-17	4.712389	1.5707964	1.5707964	-0.07040897	-0.9904943	0	-0.08832226	0.98915774	0	-0.00055362267	0.9996706	0	0.66	100	2e-09	20	-116
0	-0.05328881	0.33278084	0	-2.3447578e-17	-2.5847483e-17	4.712389	3.1415927	1.5707964	-0.07078652	-0.99046814	0	-0.08852651	0.98914015	0	-0.00055341667	0.9996706	0	0.66	100	2e-09	20	-116
0	-0.053288594	0.3327808	0	-2.3447578e-17	-2.5847485e-17	4.712389	4.712389	1.5707964	-0.07078495	-0.99046826	0	-0.08852743	0.98914003	0	-0.0005534143	0.99967057	0	0.66	100	2e-09	20	-116
0	0.6460698	0.42504612	0	-2.335976e-17	-2.5847816e-17	0	0	1.5707964	0.9923895	-0.024558391	0	0.9472869	0.30001333	0	-0.0014668659	0.99968344	0	0.66	100	2e-09	20	-118
0	0.37232548	0.6228086	0	-2.339622e-17	-2.5847541e-17	0	1.5707964	1.5707964	0.9861205	-0.115224026	0	0.13179803	0.98397684	0	-0.00094209635	0.9996729	0	0.66	100	2e-09	20	-118
0	0.37228465	0.62262577	0	-2.339622e-17	-2.5847545e-17	0	3.1415927	1.5707964	0.9860572	-0.115780376	0	0.13173833	0.9839848	0	-0.0009416969	0.9996729	0	0.66	100	2e-09	20	-118
0	0.43156683	0.058905385	0	-2.3188354e-17	-2.5847942e-17	0	4.712389	1.5707964	0.9852917	0.12192186	0	0.30848104	-0.944894	0	0.00092778704	0.99968827	0	0.66	100	2e-09	20	-118
0	0.40080947	0.73098063	0	-2.3291517e-17	-2.584783e-17	1.5707964	0	1.5707964	0.23862386	0.9643691	0	0.9660681	0.2288887	0	-0.0022634126	0.9996841	0	0.66	100	2e-09	20	-118
0	-0.060765497	0.9921135	0	-2.337537e-17	-2.5847536e-17	1.5707964	1.5707964	1.5707964	-0.08572881	0.9888744	0	-0.09496922	0.98779345	0	-0.0015984587	0.9996726	0	0.66	100	2e-09	20	-118
0	-0.6476497	0.4213979	0	-2.3444391e-17	-2.5847551e-17	1.5707964	3.1415927	1.5707964	-0.9925367	-0.020177674	0	-0.9512461	0.28469804	0	0.0008337217	0.9996733	0	0.66	100	2e-09	20	-118
0	-0.103942245	0.3393216	0	-2.3234678e-17	-2.5847864e-17	1.5707964	4.712389	1.5707964	-0.101568125	0.987861	0	-0.21117634	-0.9695813	0	0.0009177244	0.9996852	0	0.66	100	2e-09	20	-118
0	-0.4303913	0.6164944	0	-2.3439977e-17	-2.5847521e-17	3.1415927	0	1.5707964	-0.9881013	-0.09698644	0	-0.30214745	0.9467975	0	-0.0009251237	0.9996722	0	0.66	100	2e-09	20	-118
0	-0.4303837	0.6165114	0	-2.3439977e-17	-2.5847521e-17	3.1415927	1.5707964	1.5707964	-0.9881054	-0.09694362	0	-0.30212063	0.94680583	0	-0.0009251988	0.99967223	0	0.66	100	2e-09	20	-118
0	-0.6477166	0.4212898	0	-2.3444391e-17	-2.5847554e-17	3.1415927	3.1415927	1.5707964	-0.99254304	-0.019851973	0	-0.95144117	0.28404805	0	0.00083454966	0.99967337	0	0.66	100	2e-09	20	-118
0	-0.6477121	0.4213018	0	-2.3444393e-17	-2.5847551e-17	3.1415927	4.712389	1.5707964	-0.9925429	-0.019859856	0	-0.95142794	0.28409198	0	0.00083448534	0.99967337	0	0.66	100	2e-09	20	-118
0	-0.050546963	0.33288664	0	-2.3439744e-17	-2.5847513e-17	4.712389	0	1.5707964	-0.06829716	-0.99063927	0	-0.082877204	0.98962736	0	-0.0004665224	0.99967176	0	0.66	100	2e-09	20	-118
0	-0.050539535	0.33288652	0	-2.3439744e-17	-2.5847513e-17	4.712389	1.5707964	1.5707964	-0.068283066	-0.99064016	0	-0.08286901	0.989628	0	-0.00046653065	0.9996717	0	0.66	100	2e-09	20	-118
0	-0.05076956	0.3328897	0	-2.3439743e-17	-2.5847513e-17	4.712389	3.1415927	1.5707964	-0.06872498	-0.9906105	0	-0.08311741	0.9896079	0	-0.00046628798	0.99967176	0	0.66	100	2e-09	20	-118
0	-0.050534923	0.3328865	0	-2.3439744e-17	-2.5847513e-17	4.712389	4.712389	1.5707964	-0.06827435	-0.99064076	0	-0.08286391	0.9896285	0	-0.0004665357	0.99967176	0	0.66	100	2e-09	20	-118
0	0.64839596	0.41835842	0	-2.3360164e-17	-2.5847813e-17	0	0	1.5707964	0.99245626	-0.021589339	0	0.95409924	0.27698115	0	-0.001367527	0.9996833	0	0.66	100	2e-09	20	-120
0	0.37518498	0.6228235	0	-2.3390145e-17	-2.5847568e-17	0	1.5707964	1.5707964	0.9862473	-0.11410438	0	0.1401728	0.98290086	0	-0.00086510164	0.99967396	0	0.66	100	2e-09	20	-120
0	0.40344775	0.722325	0	-2.3292356e-17	-2.584783e-17	0	3.1415927	1.5707964	0.2408628	0.96382886	0	0.97162014	0.20346205	0	-0.0021397606	0.9996841	0	0.66	100	2e-09	20	-120
0	0.43507078	0.059916828	0	-2.3195747e-17	-2.5847937e-17	0	4.712389	1.5707964	0.9853331	0.121593595	0	0.31906575	-0.9415312	0	0.00081362715	0.999688	0	0.66	100	2e-09	20	-120
0	0.4034024	0.7223892	0	-2.3292356e-17	-2.5847829e-17	1.5707964	0	1.5707964	0.24076079	0.96385354	0	0.97158635	0.20362987	0	-0.0021399346	0.9996841	0	0.66	100	2e-09	20	-120