# t (s)	mx ()	my ()	mz ()	E_total (J)	E_Zeeman (J)	a1 (rad)	a2 (rad)	a3 (rad)	m.region1x ()	m.region1y ()	m.region1z ()	m.region2x ()	m.region2y ()	m.region2z ()	m.region3x ()	m.region3y ()	m.region3z ()	roundness ()	size (m)	Cell_size (m)	var1-d (nm)	var2-Msat (kA/m)
0	0.6523983	0.40054566	0	-7.956748e-18	-9.695706e-18	0	0	1.5707964	0.9924747	-0.021575991	0	0.9672831	0.22324331	0	-0.0025629112	0.99996966	0	0.66	100	2e-09	-100	300
0	0.3729773	0.6216959	0	-7.976178e-18	-9.695529e-18	0	1.5707964	1.5707964	0.9858046	-0.11803098	0	0.13604522	0.9831676	0	-0.0029180604	0.9999514	0	0.66	100	2e-09	-100	300
0	0.37282503	0.62130433	0	-7.976179e-18	-9.695528e-18	0	3.1415927	1.5707964	0.98566246	-0.1192491	0	0.13572916	0.98321086	0	-0.0029165857	0.99995136	0	0.66	100	2e-09	-100	300
0	0.40639418	0.050367493	0	-7.813735e-18	-9.695565e-18	0	4.712389	1.5707964	0.98592407	0.11682875	0	0.22998032	-0.9656814	0	0.0032782124	0.9999551	0	0.66	100	2e-09	-100	300
0	0.420075	0.69829756	0	-7.881903e-18	-9.695688e-18	1.5707964	0	1.5707964	0.28189126	0.95296115	0	0.9817369	0.14196366	0	-0.0034031777	0.9999678	0	0.66	100	2e-09	-100	300
0	-0.051162638	0.99280965	0	-7.94381e-18	-9.6955014e-18	1.5707964	1.5707964	1.5707964	-0.052830566	0.99107724	0	-0.09705364	0.9874035	0	-0.003603708	0.9999486	0	0.66	100	2e-09	-100	300
0	-0.45090023	0.68667036	0	-7.940127e-18	-9.695647e-18	1.5707964	3.1415927	1.5707964	-0.37077644	0.9227654	0	-0.9829879	0.13728198	0	0.0010635476	0.9999636	0	0.66	100	2e-09	-100	300
0	-0.08125688	0.33849064	0	-7.850422e-18	-9.6955486e-18	1.5707964	4.712389	1.5707964	-0.06614071	0.9907919	0	-0.18070313	-0.9752734	0	0.0030732213	0.9999533	0	0.66	100	2e-09	-100	300
0	-0.44052276	0.6109645	0	-8.003608e-18	-9.695528e-18	3.1415927	0	1.5707964	-0.9873327	-0.10441438	0	-0.33155158	0.93735653	0	-0.002684003	0.99995136	0	0.66	100	2e-09	-100	300
0	-0.44041216	0.61099553	0	-8.003606e-18	-9.695529e-18	3.1415927	1.5707964	1.5707964	-0.98733044	-0.104435705	0	-0.33122095	0.9374708	0	-0.002685051	0.99995136	0	0.66	100	2e-09	-100	300
0	-0.65358764	0.3987054	0	-8.0240755e-18	-9.695641e-18	3.1415927	3.1415927	1.5707964	-0.9925349	-0.0192524	0	-0.969333	0.21540558	0	0.0011050411	0.99996305	0	0.66	100	2e-09	-100	300
0	-0.6535105	0.39891157	0	-8.0240755e-18	-9.695641e-18	3.1415927	4.712389	1.5707964	-0.9925272	-0.019656174	0	-0.9691061	0.21642786	0	0.0011016711	0.99996316	0	0.66	100	2e-09	-100	300
0	-0.04260265	0.33241433	0	-8.012197e-18	-9.6955295e-18	4.712389	0	1.5707964	-0.040586412	-0.9921261	0	-0.08488119	0.98941755	0	-0.0023403522	0.9999516	0	0.66	100	2e-09	-100	300
0	-0.042560823	0.33241513	0	-8.012198e-18	-9.69553e-18	4.712389	1.5707964	1.5707964	-0.040521927	-0.9921287	0	-0.08482004	0.9894226	0	-0.0023404867	0.9999515	0	0.66	100	2e-09	-100	300
0	-0.04329298	0.3324083	0	-8.012197e-18	-9.6955295e-18	4.712389	3.1415927	1.5707964	-0.041833248	-0.9920756	0	-0.085706934	0.9893491	0	-0.0023387487	0.9999515	0	0.66	100	2e-09	-100	300
0	-0.13418671	-0.3116455	0	-7.781698e-18	-9.695486e-18	4.712389	4.712389	1.5707964	-0.115290366	-0.9858879	0	-0.291813	-0.9489957	0	0.004543201	0.99994695	0	0.66	100	2e-09	-100	300
0	0.64360803	0.4283321	0	-1.1089388e-17	-1.29271935e-17	0	0	1.5707964	0.9922135	-0.031515718	0	0.94143355	0.31657428	0	-0.0028229088	0.9999376	0	0.66	100	2e-09	-100	400
0	0.3622988	0.62208855	0	-1.1136259e-17	-1.29269156e-17	0	1.5707964	1.5707964	0.98553437	-0.12030818	0	0.104200974	0.9866576	0	-0.0028390784	0.99991614	0	0.66	100	2e-09	-100	400
0	0.64360684	0.4283258	0	-1.1089388e-17	-1.29271935e-17	0	3.1415927	1.5707964	0.9922126	-0.03154275	0	0.94143075	0.31658253	0	-0.0028229114	0.9999376	0	0.66	100	2e-09	-100	400
0	0.3910158	0.048775073	0	-1.091843e-17	-1.29269826e-17	0	4.712389	1.5707964	0.98541856	0.121015735	0	0.1841704	-0.9746118	0	0.003458376	0.9999214	0	0.66	100	2e-09	-100	400
0	0.40859276	0.73329026	0	-1.101409e-17	-1.2927172e-17	1.5707964	0	1.5707964	0.26744542	0.956998	0	0.9620432	0.2429368	0	-0.003710441	0.9999359	0	0.66	100	2e-09	-100	400
0	-0.063021824	0.991723	0	-1.11084715e-17	-1.2926882e-17	1.5707964	1.5707964	1.5707964	-0.06743919	0.9902241	0	-0.118083104	0.98503166	0	-0.0035431653	0.99991333	0	0.66	100	2e-09	-100	400
0	-0.45731834	0.71084166	0	-1.10915705e-17	-1.2927067e-17	1.5707964	3.1415927	1.5707964	-0.40636256	0.9079325	0	-0.9663065	0.22466467	0	0.0007139489	0.99992794	0	0.66	100	2e-09	-100	400
0	-0.45812938	0.7104711	0	-1.1091571e-17	-1.2927067e-17	1.5707964	4.712389	1.5707964	-0.4087871	0.90685755	0	-0.9663143	0.2246278	0	0.00071337156	0.9999279	0	0.66	100	2e-09	-100	400
0	-0.4418817	0.61084026	0	-1.1171109e-17	-1.2926908e-17	3.1415927	0	1.5707964	-0.98744875	-0.1033487	0	-0.33552563	0.93595386	0	-0.0026707298	0.99991554	0	0.66	100	2e-09	-100	400
0	-0.44189242	0.6108471	0	-1.1171108e-17	-1.29269065e-17	3.1415927	1.5707964	1.5707964	-0.9874519	-0.103318	0	-0.33555493	0.93594366	0	-0.0026706583	0.9999156	0	0.66	100	2e-09	-100	400
0	-0.6452875	0.4259844	0	-1.117896e-17	-1.2927054e-17	3.1415927	3.1415927	1.5707964	-0.9923563	-0.02716621	0	-0.94423896	0.30519256	0	0.0007325883	0.9999269	0	0.66	100	2e-09	-100	400
0	-0.64529324	0.42597106	0	-1.117896e-17	-1.2927054e-17	3.1415927	4.712389	1.5707964	-0.99235666	-0.02715585	0	-0.9442559	0.30514207	0	0.00073278934	0.99992687	0	0.66	100	2e-09	-100	400
0	-0.053000983	0.33194816	0	-1.1176624e-17	-1.2926913e-17	4.712389	0	1.5707964	-0.052274667	-0.99158984	0	-0.10444239	0.98751837	0	-0.0022858852	0.9999159	0	0.66	100	2e-09	-100	400
0	-0.05302093	0.33194822	0	-1.1176624e-17	-1.2926913e-17	4.712389	1.5707964	1.5707964	-0.052315414	-0.9915879	0	-0.10446153	0.9875166	0	-0.002285855	0.999916	0	0.66	100	2e-09	-100	400
0	-0.0536135	0.3319452	0	-1.11766246e-17	-1.2926913e-17	4.712389	3.1415927	1.5707964	-0.053433966	-0.99152976	0	-0.10512192	0.98744947	0	-0.0022846304	0.9999159	0	0.66	100	2e-09	-100	400
0	-0.053534396	0.33194554	0	-1.1176622e-17	-1.2926915e-17	4.712389	4.712389	1.5707964	-0.053283416	-0.99153763	0	-0.105035	0.9874584	0	-0.0022847862	0.99991584	0	0.66	100	2e-09	-100	400
0	0.35335004	0.6220807	0	-1.4269628e-17	-1.6157868e-17	0	0	1.5707964	0.9852842	-0.12237883	0	0.07753535	0.9887529	0	-0.002769387	0.9998681	0	0.66	100	2e-09	-100	500
0	0.35333624	0.62209046	0	-1.4269628e-17	-1.6157868e-17	0	1.5707964	1.5707964	0.9852873	-0.1223532	0	0.07749078	0.98875636	0	-0.0027692907	0.99986804	0	0.66	100	2e-09	-100	500
0	0.35320202	0.62185794	0	-1.4269627e-17	-1.6157868e-17	0	3.1415927	1.5707964	0.9851999	-0.12307611	0	0.07717419	0.9887819	0	-0.002768054	0.9998681	0	0.66	100	2e-09	-100	500
0	0.3712406	0.047703363	0	-1.3996551e-17	-1.6157959e-17	0	4.712389	1.5707964	0.98478806	0.12604594	0	0.12527716	-0.98280954	0	0.0036564681	0.9998737	0	0.66	100	2e-09	-100	500
0	-0.07323761	0.9906161	0	-1.4246113e-17	-1.6157823e-17	1.5707964	0	1.5707964	-0.080785714	0.98926157	0	-0.13543285	0.98272145	0	-0.003494273	0.9998654	0	0.66	100	2e-09	-100	500
0	-0.07336237	0.9906041	0	-1.4246115e-17	-1.6157823e-17	1.5707964	1.5707964	1.5707964	-0.08103212	0.989242	0	-0.13556097	0.98270494	0	-0.0034940178	0.9998653	0	0.66	100	2e-09	-100	500
0	-0.5753786	0.5242037	0	-1.4313757e-17	-1.615792e-17	1.5707964	3.1415927	1.5707964	-0.9909882	-0.05921332	0	-0.73393315	0.63195324	0	-0.0012144826	0.9998712	0	0.66	100	2e-09	-100	500
0	-0.575379	0.5242035	0	-1.4313758e-17	-1.6157916e-17	1.5707964	4.712389	1.5707964	-0.99098825	-0.059212945	0	-0.7339342	0.6319521	0	-0.0012144756	0.9998712	0	0.66	100	2e-09	-100	500
0	-0.44286907	0.6107965	0	-1.4311414e-17	-1.615785e-17	3.1415927	0	1.5707964	-0.98755306	-0.102384716	0	-0.338391	0.9349075	0	-0.0026632256	0.9998669	0	0.66	100	2e-09	-100	500
0	-0.44291863	0.6107988	0	-1.4311414e-17	-1.615785e-17	3.1415927	1.5707964	1.5707964	-0.9875589	-0.10232728	0	-0.33853415	0.9348568	0	-0.0026628224	0.9998669	0	0.66	100	2e-09	-100	500
0	-0.57537854	0.52420384	0	-1.4313758e-17	-1.6157918e-17	3.1415927	3.1415927	1.5707964	-0.9909882	-0.059213456	0	-0.7339328	0.63195366	0	-0.0012144851	0.99987113	0	0.66	100	2e-09	-100	500
0	-0.5753769	0.52420497	0	-1.431376e-17	-1.6157916e-17	3.1415927	4.712389	1.5707964	-0.9909882	-0.059215	0	-0.7339282	0.6319588	0	-0.0012145175	0.99987113	0	0.66	100	2e-09	-100	500
0	-0.062072843	0.33149484	0	-1.4314054e-17	-1.615786e-17	4.712389	0	1.5707964	-0.06304102	-0.9909767	0	-0.120936595	0.98559374	0	-0.0022409323	0.9998675	0	0.66	100	2e-09	-100	500
0	-0.06222819	0.33149472	0	-1.4314056e-17	-1.615786e-17	4.712389	1.5707964	1.5707964	-0.06334406	-0.99095786	0	-0.12109989	0.98557454	0	-0.0022406424	0.99986744	0	0.66	100	2e-09	-100	500
0	-0.06266292	0.33149517	0	-1.4314056e-17	-1.615786e-17	4.712389	3.1415927	1.5707964	-0.064202525	-0.99090415	0	-0.12154639	0.9855222	0	-0.0022398666	0.9998675	0	0.66	100	2e-09	-100	500
0	-0.06243577	0.33150658	0	-1.4314054e-17	-1.6157858e-17	4.712389	4.712389	1.5707964	-0.063948184	-0.9909201	0	-0.12111816	0.98557246	0	-0.0022409577	0.9998675	0	0.66	100	2e-09	-100	500
0	0.34569177	0.62187827	0	-1.7376322e-17	-1.9388255e-17	0	0	1.5707964	0.9850696	-0.1241248	0	0.05471339	0.98995274	0	-0.0027076935	0.9998068	0	0.66	100	2e-09	-100	600
0	0.3456791	0.62187487	0	-1.7376322e-17	-1.9388255e-17	0	1.5707964	1.5707964	0.98506814	-0.124136984	0	0.054676767	0.9899549	0	-0.0027075924	0.9998068	0	0.66	100	2e-09	-100	600
0	0.34567901	0.6218751	0	-1.7376322e-17	-1.9388255e-17	0	3.1415927	1.5707964	0.9850682	-0.12413642	0	0.05467634	0.9899549	0	-0.002707591	0.9998068	0	0.66	100	2e-09	-100	600
0	0.3446721	0.047936585	0	-1.7048636e-17	-1.9388354e-17	0	4.712389	1.5707964	0.98397356	0.13226108	0	0.046174508	-0.98826325	0	0.0038682907	0.9998119	0	0.66	100	2e-09	-100	600
0	-0.08258602	0.9894752	0	-1.735685e-17	-1.93882e-17	1.5707964	0	1.5707964	-0.09396097	0.9881391	0	-0.15034333	0.98048234	0	-0.0034537683	0.9998042	0	0.66	100	2e-09	-100	600
0	-0.082576945	0.98947614	0	-1.735685e-17	-1.93882e-17	1.5707964	1.5707964	1.5707964	-0.09394401	0.9881407	0	-0.15033305	0.98048395	0	-0.0034537902	0.9998042	0	0.66	100	2e-09	-100	600
0	-0.3474031	0.8665588	0	-1.7330273e-17	-1.9388288e-17	1.5707964	3.1415927	1.5707964	-0.33710095	0.93538344	0	-0.7033533	0.6644846	0	-0.0017551346	0.9998086	0	0.66	100	2e-09	-100	600
0	-0.34736842	0.86658007	0	-1.7330273e-17	-1.9388288e-17	1.5707964	4.712389	1.5707964	-0.33702898	0.9354085	0	-0.70332086	0.6645232	0	-0.0017553029	0.9998086	0	0.66	100	2e-09	-100	600
0	-0.4437202	0.6107926	0	-1.7424674e-17	-1.9388227e-17	3.1415927	0	1.5707964	-0.9876571	-0.10141156	0	-0.3408449	0.93398374	0	-0.0026585725	0.9998054	0	0.66	100	2e-09	-100	600
0	-0.44372618	0.61079955	0	-1.7424674e-17	-1.9388225e-17	3.1415927	1.5707964	1.5707964	-0.9876599	-0.101384856	0	-0.34086025	0.9339783	0	-0.002658544	0.9998054	0	0.66	100	2e-09	-100	600
0	-0.5673186	0.53146654	0	-1.7425413e-17	-1.9388285e-17	3.1415927	3.1415927	1.5707964	-0.9908198	-0.062085383	0	-0.70974845	0.6566765	0	-0.001387505	0.9998086	0	0.66	100	2e-09	-100	600
0	-0.56731755	0.5314654	0	-1.7425413e-17	-1.9388285e-17	3.1415927	4.712389	1.5707964	-0.9908195	-0.06209198	0	-0.70974565	0.6566797	0	-0.0013875181	0.99980843	0	0.66	100	2e-09	-100	600
0	-0.0703613	0.33107376	0	-1.7424604e-17	-1.938824e-17	4.712389	0	1.5707964	-0.07360598	-0.9902637	0	-0.13527471	0.9836791	0	-0.0022032312	0.9998061	0	0.66	100	2e-09	-100	600
0	-0.07026209	0.33107302	0	-1.7424604e-17	-1.938824e-17	4.712389	1.5707964	1.5707964	-0.07340282	-0.9902784	0	-0.13518007	0.9836915	0	-0.002203382	0.99980605	0	0.66	100	2e-09	-100	600
0	-0.070697844	0.33107832	0	-1.7424603e-17	-1.9388238e-17	4.712389	3.1415927	1.5707964	-0.07432216	-0.9902117	0	-0.13556856	0.9836408	0	-0.0022028147	0.99980605	0	0.66	100	2e-09	-100	600
0	-0.070695706	0.3310762	0	-1.7424604e-17	-1.938824e-17	4.712389	4.712389	1.5707964	-0.074286684	-0.9902143	0	-0.13559772	0.9836369	0	-0.002202708	0.9998059	0	0.66	100	2e-09	-100	600
0	0.33905393	0.6214488	0	-2.0456415e-17	-2.2617949e-17	0	0	1.5707964	0.9848438	-0.12593696	0	0.034970917	0.9905509	0	-0.0026529473	0.9997326	0	0.66	100	2e-09	-100	700
0	0.33904934	0.6214377	0	-2.0456418e-17	-2.261795e-17	0	1.5707964	1.5707964	0.98483974	-0.12597062	0	0.034961175	0.99055135	0	-0.002652902	0.9997325	0	0.66	100	2e-09	-100	700
0	0.33894837	0.6213649	0	-2.0456418e-17	-2.2617949e-17	0	3.1415927	1.5707964	0.98481107	-0.12620038	0	0.03468609	0.9905625	0	-0.002652041	0.9997326	0	0.66	100	2e-09	-100	700
0	0.30632594	0.051728785	0	-2.0075513e-17	-2.2618028e-17	0	4.712389	1.5707964	0.9828194	0.1406004	0	-0.06792363	-0.98515	0	0.0040819934	0.999736	0	0.66	100	2e-09	-100	700
0	-0.09090235	0.9883525	0	-2.0440796e-17	-2.2617892e-17	1.5707964	0	1.5707964	-0.10631836	0.98693055	0	-0.16296798	0.9783967	0	-0.0034207169	0.9997301	0	0.66	100	2e-09	-100	700
0	-0.09090421	0.98835224	0	-2.0440798e-17	-2.2617892e-17	1.5707964	1.5707964	1.5707964	-0.106322564	0.98693	0	-0.16296935	0.9783965	0	-0.0034207148	0.9997301	0	0.66	100	2e-09	-100	700
0	-0.33870307	0.87643737	0	-2.0413944e-17	-2.261796e-17	1.5707964	3.1415927	1.5707964	-0.3384449	0.9349185	0	-0.6757403	0.6946603	0	-0.0019240931	0.9997332	0	0.66	100	2e-09	-100	700
0	-0.3386998	0.8764427	0	-2.0413946e-17	-2.2617963e-17	1.5707964	4.712389	1.5707964	-0.33845	0.93491673	0	-0.67572534	0.6946783	0	-0.001924172	0.9997332	0	0.66	100	2e-09	-100	700
0	-0.44420692	0.61085457	0	-2.0511032e-17	-2.2617915e-17	3.1415927	0	1.5707964	-0.98774445	-0.10059727	0	-0.3422182	0.93342996	0	-0.0026581648	0.999731	0	0.66	100	2e-09	-100	700
0	-0.44422168	0.6108592	0	-2.0511035e-17	-2.2617912e-17	3.1415927	1.5707964	1.5707964	-0.9877472	-0.10056834	0	-0.34225982	0.93341494	0	-0.0026580605	0.99973106	0	0.66	100	2e-09	-100	700
0	-0.56139386	0.5367881	0	-2.0510436e-17	-2.2617963e-17	3.1415927	3.1415927	1.5707964	-0.99069154	-0.0642062	0	-0.6919835	0.6748374	0	-0.001506539	0.9997332	0	0.66	100	2e-09	-100	700
0	-0.56139785	0.53678685	0	-2.0510436e-17	-2.2617967e-17	3.1415927	4.712389	1.5707964	-0.99069214	-0.064197086	0	-0.69199485	0.67482424	0	-0.0015064797	0.99973327	0	0.66	100	2e-09	-100	700
0	-0.07782162	0.33069456	0	-2.0508382e-17	-2.2617927e-17	4.712389	0	1.5707964	-0.083617955	-0.98948616	0	-0.14767505	0.9818384	0	-0.0021718713	0.99973154	0	0.66	100	2e-09	-100	700
0	-0.07779617	0.33069542	0	-2.050838e-17	-2.2617927e-17	4.712389	1.5707964	1.5707964	-0.083580025	-0.9894893	0	-0.1476365	0.9818438	0	-0.0021719604	0.99973154	0	0.66	100	2e-09	-100	700
0	-0.078022175	0.33069864	0	-2.0508382e-17	-2.2617927e-17	4.712389	3.1415927	1.5707964	-0.08405339	-0.9894503	0	-0.14784147	0.9818147	0	-0.0021716563	0.99973154	0	0.66	100	2e-09	-100	700
0	-0.07817382	0.3307008	0	-2.050838e-17	-2.2617927e-17	4.712389	4.712389	1.5707964	-0.08436979	-0.989424	0	-0.14798023	0.9817949	0	-0.002171448	0.9997316	0	0.66	100	2e-09	-100	700
0	0.3332655	0.6209882	0	-2.3509997e-17	-2.5846838e-17	0	0	1.5707964	0.9846562	-0.12742026	0	0.017744904	0.990739	0	-0.0026046052	0.9996456	0	0.66	100	2e-09	-100	800
0	0.33326352	0.62097895	0	-2.3509997e-17	-2.5846835e-17	0	1.5707964	1.5707964	0.98465276	-0.12744792	0	0.01774233	0.9907392	0	-0.0026045819	0.9996457	0	0.66	100	2e-09	-100	800
0	0.33329263	0.6208759	0	-2.3509997e-17	-2.5846838e-17	0	3.1415927	1.5707964	0.98461413	-0.12775427	0	0.017868467	0.9907363	0	-0.0026047318	0.9996456	0	0.66	100	2e-09	-100	800
0	0.3332341	0.6209549	0	-2.3509997e-17	-2.5846835e-17	0	4.712389	1.5707964	0.98464346	-0.12752214	0	0.017663172	0.99074125	0	-0.002604327	0.99964565	0	0.66	100	2e-09	-100	800
0	-0.098453395	0.98724556	0	-2.3498085e-17	-2.5846779e-17	1.5707964	0	1.5707964	-0.1181297	0.9856338	0	-0.17383696	0.97645974	0	-0.003393525	0.9996433	0	0.66	100	2e-09	-100	800
0	-0.098462254	0.98724425	0	-2.3498085e-17	-2.5846779e-17	1.5707964	1.5707964	1.5707964	-0.118139945	0.98563266	0	-0.17385335	0.97645706	0	-0.003393481	0.9996434	0	0.66	100	2e-09	-100	800
0	-0.09880407	0.98719996	0	-2.3498085e-17	-2.5846779e-17	1.5707964	3.1415927	1.5707964	-0.11888964	0.9855454	0	-0.17412956	0.9764113	0	-0.0033930324	0.9996433	0	0.66	100	2e-09	-100	800
0	-0.098809406	0.98719925	0	-2.3498085e-17	-2.5846777e-17	1.5707964	4.712389	1.5707964	-0.11890097	0.9855441	0	-0.17413422	0.97641045	0	-0.003393025	0.9996434	0	0.66	100	2e-09	-100	800
0	-0.44467807	0.6109248	0	-2.357064e-17	-2.5846793e-17	3.1415927	0	1.5707964	-0.98783386	-0.09975173	0	-0.34354177	0.93288213	0	-0.0026586622	0.99964404	0	0.66	100	2e-09	-100	800
0	-0.44467682	0.6109345	0	-2.357064e-17	-2.5846797e-17	3.1415927	1.5707964	1.5707964	-0.9878364	-0.09972474	0	-0.34353524	0.9328844	0	-0.0026587	0.999644	0	0.66	100	2e-09	-100	800
0	-0.55628884	0.54137737	0	-2.3568884e-17	-2.5846833e-17	3.1415927	3.1415927	1.5707964	-0.9905735	-0.06610654	0	-0.67669	0.69059306	0	-0.0016027314	0.9996455	0	0.66	100	2e-09	-100	800
0	-0.55628794	0.5413776	0	-2.3568887e-17	-2.5846835e-17	3.1415927	4.712389	1.5707964	-0.9905735	-0.06610846	0	-0.6766877	0.69059575	0	-0.0016027414	0.9996455	0	0.66	100	2e-09	-100	800
0	-0.08455315	0.33036277	0	-2.3565515e-17	-2.584681e-17	4.712389	0	1.5707964	-0.09309948	-0.988658	0	-0.15841404	0.98010176	0	-0.002145974	0.9996445	0	0.66	100	2e-09	-100	800
0	-0.08453779	0.33036256	0	-2.3565515e-17	-2.584681e-17	4.712389	1.5707964	1.5707964	-0.09306781	-0.988661	0	-0.15839957	0.98010415	0	-0.002145996	0.99964446	0	0.66	100	2e-09	-100	800
0	-0.08477879	0.33036795	0	-2.3565515e-17	-2.5846807e-17	4.712389	3.1415927	1.5707964	-0.09358541	-0.9886133	0	-0.15860525	0.9800726	0	-0.002145721	0.9996445	0	0.66	100	2e-09	-100	800
0	-0.08455175	0.33036286	0	-2.3565515e-17	-2.584681e-17	4.712389	4.712389	1.5707964	-0.09309746	-0.9886582	0	-0.15841182	0.98010224	0	-0.0021459789	0.9996445	0	0.66	100	2e-09	-100	800
0	0.3281426	0.62039804	0	-2.6537163e-17	-2.9074803e-17	0	0	1.5707964	0.9844542	-0.12899964	0	0.0025350328	0.99064755	0	-0.002561492	0.99954623	0	0.66	100	2e-09	-100	900
0	0.32814246	0.62039745	0	-2.653716e-17	-2.90748e-17	0	1.5707964	1.5707964	0.98445386	-0.12900154	0	0.0025348386	0.9906477	0	-0.00256149	0.99954623	0	0.66	100	2e-09	-100	900
0	0.32812053	0.6204141	0	-2.6537163e-17	-2.9074803e-17	0	3.1415927	1.5707964	0.98446023	-0.12895212	0	0.0024626488	0.9906483	0	-0.002561327	0.9995463	0	0.66	100	2e-09	-100	900
0	0.32814524	0.62041664	0	-2.653716e-17	-2.9074803e-17	0	4.712389	1.5707964	0.98446125	-0.12894377	0	0.0025359315	0.9906475	0	-0.002561528	0.9995463	0	0.66	100	2e-09	-100	900
0	-0.10549264	0.9861403	0	-2.652884e-17	-2.9074743e-17	1.5707964	0	1.5707964	-0.12973084	0.984225	0	-0.18337616	0.9746514	0	-0.003370936	0.9995442	0	0.66	100	2e-09	-100	900
0	-0.10546622	0.986144	0	-2.6528844e-17	-2.9074743e-17	1.5707964	1.5707964	1.5707964	-0.12967235	0.9842325	0	-0.18335538	0.9746551	0	-0.0033709684	0.99954426	0	0.66	100	2e-09	-100	900
0	-0.105827786	0.9860932	0	-2.652884e-17	-2.9074743e-17	1.5707964	3.1415927	1.5707964	-0.13047312	0.98413	0	-0.18363972	0.97460544	0	-0.0033705204	0.9995442	0	0.66	100	2e-09	-100	900
0	-0.105825946	0.9860936	0	-2.6528844e-17	-2.9074743e-17	1.5707964	4.712389	1.5707964	-0.13046902	0.98413056	0	-0.18363826	0.97460574	0	-0.0033705228	0.9995443	0	0.66	100	2e-09	-100	900
0	-0.4449368	0.6110287	0	-2.6603644e-17	-2.907476e-17	3.1415927	0	1.5707964	-0.9879122	-0.0990101	0	-0.3442369	0.93255156	0	-0.0026614375	0.9995448	0	0.66	100	2e-09	-100	900
0	-0.44492745	0.6110537	0	-2.6603644e-17	-2.907476e-17	3.1415927	1.5707964	1.5707964	-0.98791826	-0.098947644	0	-0.34420243	0.932564	0	-0.0026615807	0.9995448	0	0.66	100	2e-09	-100	900
0	-0.5515613	0.5456622	0	-2.6600865e-17	-2.9074783e-17	3.1415927	3.1415927	1.5707964	-0.99046403	-0.0678298	0	-0.6625336	0.7052709	0	-0.0016862815	0.9995457	0	0.66	100	2e-09	-100	900
0	-0.5515615	0.54566205	0	-2.6600865e-17	-2.9074786e-17	3.1415927	4.712389	1.5707964	-0.9904641	-0.067829765	0	-0.66253406	0.70527023	0	-0.001686279	0.9995457	0	0.66	100	2e-09	-100	900
0	-0.09079286	0.33007765	0	-2.6596135e-17	-2.907477e-17	4.712389	0	1.5707964	-0.1023319	-0.9877659	0	-0.16792233	0.97845364	0	-0.0021243552	0.9995451	0	0.66	100	2e-09	-100	900
0	-0.0907946	0.3300778	0	-2.6596135e-17	-2.9074767e-17	4.712389	1.5707964	1.5707964	-0.10233649	-0.9877654	0	-0.16792297	0.9784535	0	-0.0021243566	0.99954516	0	0.66	100	2e-09	-100	900
0	-0.09103274	0.33008507	0	-2.6596135e-17	-2.907477e-17	4.712389	3.1415927	1.5707964	-0.1028595	-0.9877126	0	-0.16811462	0.9784226	0	-0.00212413	0.99954516	0	0.66	100	2e-09	-100	900
0	0.32809815	0.6203775	0	-2.6537163e-17	-2.9074803e-17	4.712389	4.712389	1.5707964	0.98444617	-0.12906274	0	0.0024094274	0.9906489	0	-0.002561118	0.99954623	0	0.66	100	2e-09	-100	900
0	0.32357913	0.619761	0	-2.953802e-17	-3.230174e-17	0	0	1.5707964	0.984258	-0.13051495	0	-0.010997552	0.99036276	0	-0.0025230325	0.99943507	0	0.66	100	2e-09	-100	1e+03
0	0.32357824	0.61975455	0	-2.9538024e-17	-3.230174e-17	0	1.5707964	1.5707964	0.9842555	-0.13053416	0	-0.010997859	0.9903629	0	-0.0025230204	0.99943495	0	0.66	100	2e-09	-100	1e+03
0	0.32354188	0.619715	0	-2.953802e-17	-3.2301737e-17	0	3.1415927	1.5707964	0.98424023	-0.1306529	0	-0.011091847	0.9903629	0	-0.0025226967	0.99943507	0	0.66	100	2e-09	-100	1e+03
0	0.32357726	0.61975473	0	-2.9538024e-17	-3.230174e-17	0	4.712389	1.5707964	0.9842557	-0.13053384	0	-0.011000823	0.9903629	0	-0.0025230125	0.99943495	0	0.66	100	2e-09	-100	1e+03
0	-0.11204854	0.98504394	0	-2.9533197e-17	-3.2301684e-17	1.5707964	0	1.5707964	-0.14102148	0.9827247	0	-0.19177195	0.97297347	0	-0.0033522004	0.99943334	0	0.66	100	2e-09	-100	1e+03
0	-0.11205507	0.98504287	0	-2.9533193e-17	-3.2301684e-17	1.5707964	1.5707964	1.5707964	-0.1410363	0.98272264	0	-0.19177665	0.9729727	0	-0.0033521939	0.99943334	0	0.66	100	2e-09	-100	1e+03
0	-0.112408966	0.98498976	0	-2.9533197e-17	-3.2301684e-17	1.5707964	3.1415927	1.5707964	-0.14183526	0.9826114	0	-0.19203985	0.9729247	0	-0.0033518074	0.99943334	0	0.66	100	2e-09	-100	1e+03
0	-0.5467803	0.5500137	0	-2.96065e-17	-3.230171e-17	1.5707964	4.712389	1.5707964	-0.99034935	-0.06958601	0	-0.6482267	0.7201929	0	-0.0017646461	0.9994341	0	0.66	100	2e-09	-100	1e+03
0	-0.44518742	0.6111309	0	-2.9610177e-17	-3.2301697e-17	3.1415927	0	1.5707964	-0.98799044	-0.09826348	0	-0.34490722	0.9322225	0	-0.0026646215	0.99943376	0	0.66	100	2e-09	-100	1e+03
0	-0.44515115	0.61116654	0	-2.961018e-17	-3.2301697e-17	3.1415927	1.5707964	1.5707964	-0.98799676	-0.09819849	0	-0.34479183	0.93226427	0	-0.0026649942	0.99943376	0	0.66	100	2e-09	-100	1e+03
0	-0.5467801	0.5500128	0	-2.9606498e-17	-3.230171e-17	3.1415927	3.1415927	1.5707964	-0.9903492	-0.06958901	0	-0.64822644	0.72019327	0	-0.001764645	0.9994341	0	0.66	100	2e-09	-100	1e+03
0	-0.5467834	0.5500104	0	-2.96065e-17	-3.2301714e-17	3.1415927	4.712389	1.5707964	-0.9903495	-0.069585346	0	-0.64823604	0.7201821	0	-0.0017646044	0.9994341	0	0.66	100	2e-09	-100	1e+03
0	-0.09674042	0.32983568	0	-2.9600367e-17	-3.2301704e-17	4.712389	0	1.5707964	-0.11153918	-0.9867916	0	-0.17657612	0.9768649	0	-0.0021059653	0.999434	0	0.66	100	2e-09	-100	1e+03
0	-0.096611455	0.32983965	0	-2.9600367e-17	-3.2301707e-17	4.712389	1.5707964	1.5707964	-0.11134652	-0.9868128	0	-0.17638148	0.9768977	0	-0.0021064025	0.99943393	0	0.66	100	2e-09	-100	1e+03
0	-0.09688267	0.3298502	0	-2.9600364e-17	-3.23017e-17	4.712389	3.1415927	1.5707964	-0.11195323	-0.986746	0	-0.17658864	0.9768626	0	-0.0021061895	0.999434	0	0.66	100	2e-09	-100	1e+03
0	-0.09685906	0.32984933	0	-2.9600367e-17	-3.2301704e-17	4.712389	4.712389	1.5707964	-0.111900955	-0.9867518	0	-0.17657003	0.97686577	0	-0.0021062104	0.99943393	0	0.66	100	2e-09	-100	1e+03
0	0.31948152	0.6190741	0	-3.251269e-17	-3.552755e-17	0	0	1.5707964	0.9840588	-0.13203469	0	-0.023125747	0.98994476	0	-0.0024885833	0.9993123	0	0.66	100	2e-09	-100	1.1e+03
0	0.31948093	0.6190717	0	-3.2512695e-17	-3.552755e-17	0	1.5707964	1.5707964	0.98405796	-0.13204174	0	-0.023126725	0.98994476	0	-0.0024885763	0.9993122	0	0.66	100	2e-09	-100	1.1e+03
0	0.31947678	0.619072	0	-3.2512695e-17	-3.5527546e-17	0	3.1415927	1.5707964	0.98405814	-0.13204087	0	-0.02313916	0.98994464	0	-0.0024885433	0.9993122	0	0.66	100	2e-09	-100	1.1e+03
0	0.31945428	0.618892	0	-3.2512695e-17	-3.5527546e-17	0	4.712389	1.5707964	0.9839876	-0.13258119	0	-0.02313656	0.98994523	0	-0.0024882264	0.9993123	0	0.66	100	2e-09	-100	1.1e+03
0	-0.118267976	0.9839437	0	-3.2511285e-17	-3.55275e-17	1.5707964	0	1.5707964	-0.15220658	0.98111236	0	-0.19926076	0.97140807	0	-0.0033365863	0.9993109	0	0.66	100	2e-09	-100	1.1e+03
0	-0.11826891	0.9839434	0	-3.2511285e-17	-3.55275e-17	1.5707964	1.5707964	1.5707964	-0.15220085	0.9811131	0	-0.1992694	0.97140634	0	-0.0033365586	0.9993109	0	0.66	100	2e-09	-100	1.1e+03
0	-0.118632555	0.9838854	0	-3.2511285e-17	-3.5527503e-17	1.5707964	3.1415927	1.5707964	-0.15303618	0.98098755	0	-0.19952525	0.9713578	0	-0.0033362107	0.9993109	0	0.66	100	2e-09	-100	1.1e+03
0	0.319481	0.61907285	0	-3.2512695e-17	-3.552755e-17	1.5707964	4.712389	1.5707964	0.9840583	-0.13203852	0	-0.023126842	0.98994476	0	-0.002488578	0.9993122	0	0.66	100	2e-09	-100	1.1e+03
0	-0.44531134	0.61125225	0	-3.259039e-17	-3.5527513e-17	3.1415927	0	1.5707964	-0.9880621	-0.09757765	0	-0.34520274	0.9320232	0	-0.002669037	0.99931127	0	0.66	100	2e-09	-100	1.1e+03
0	-0.44534317	0.6112619	0	-3.259039e-17	-3.5527513e-17	3.1415927	1.5707964	1.5707964	-0.988068	-0.09751589	0	-0.3452927	0.9319904	0	-0.0026688285	0.99931127	0	0.66	100	2e-09	-100	1.1e+03
0	-0.54129934	0.5549987	0	-3.2585923e-17	-3.5527516e-17	3.1415927	3.1415927	1.5707964	-0.9902102	-0.07165334	0	-0.6318418	0.7373383	0	-0.001846005	0.9993113	0	0.66	100	2e-09	-100	1.1e+03
0	-0.4455108	0.61124355	0	-3.259039e-17	-3.5527513e-17	3.1415927	4.712389	1.5707964	-0.9880798	-0.09739197	0	-0.34578508	0.9318113	0	-0.0026675377	0.99931115	0	0.66	100	2e-09	-100	1.1e+03
0	-0.10208173	0.32964733	0	-3.257834e-17	-3.5527513e-17	4.712389	0	1.5707964	-0.12018857	-0.98579913	0	-0.1839651	0.9754299	0	-0.0020915356	0.9993113	0	0.66	100	2e-09	-100	1.1e+03
0	-0.102099165	0.3296481	0	-3.2578343e-17	-3.552751e-17	4.712389	1.5707964	1.5707964	-0.12022778	-0.98579454	0	-0.18397819	0.97542745	0	-0.0020915233	0.99931127	0	0.66	100	2e-09	-100	1.1e+03
0	-0.10232688	0.32966033	0	-3.2578343e-17	-3.5527513e-17	4.712389	3.1415927	1.5707964	-0.12076049	-0.9857311	0	-0.18412867	0.97540087	0	-0.0020914313	0.9993113	0	0.66	100	2e-09	-100	1.1e+03
0	-0.102325745	0.3296589	0	-3.2578343e-17	-3.5527513e-17	4.712389	4.712389	1.5707964	-0.120743744	-0.9857332	0	-0.18414208	0.9753986	0	-0.0020913822	0.99931127	0	0.66	100	2e-09	-100	1.1e+03
0	0.31577787	0.61835206	0	-3.546129e-17	-3.8752135e-17	0	0	1.5707964	0.98385704	-0.13355762	0	-0.03406586	0.9894353	0	-0.0024576252	0.99917847	0	0.66	100	2e-09	-100	1.2e+03
0	0.3157784	0.6183551	0	-3.546129e-17	-3.8752138e-17	0	1.5707964	1.5707964	0.9838582	-0.13354832	0	-0.034065556	0.98943526	0	-0.002457632	0.9991785	0	0.66	100	2e-09	-100	1.2e+03
0	0.31577843	0.6183561	0	-3.5461286e-17	-3.8752135e-17	0	3.1415927	1.5707964	0.98385864	-0.13354532	0	-0.034065854	0.98943526	0	-0.002457633	0.99917847	0	0.66	100	2e-09	-100	1.2e+03
0	0.31577638	0.6183439	0	-3.5461286e-17	-3.8752135e-17	0	4.712389	1.5707964	0.98385394	-0.1335821	0	-0.0340671	0.9894353	0	-0.002457607	0.99917835	0	0.66	100	2e-09	-100	1.2e+03
0	-0.1242072	0.98283625	0	-3.5463235e-17	-3.87521e-17	1.5707964	0	1.5707964	-0.16328661	0.97939056	0	-0.20601152	0.9699402	0	-0.0033234812	0.99917746	0	0.66	100	2e-09	-100	1.2e+03
0	-0.12420744	0.9828361	0	-3.546323e-17	-3.87521e-17	1.5707964	1.5707964	1.5707964	-0.16328701	0.9793905	0	-0.2060118	0.96994	0	-0.003323481	0.9991775	0	0.66	100	2e-09	-100	1.2e+03
0	-0.12456868	0.9827749	0	-3.5463235e-17	-3.8752105e-17	1.5707964	3.1415927	1.5707964	-0.16412897	0.97925454	0	-0.20625386	0.9698927	0	-0.0033231755	0.9991775	0	0.66	100	2e-09	-100	1.2e+03
0	-0.124566965	0.9827751	0	-3.5463235e-17	-3.87521e-17	1.5707964	4.712389	1.5707964	-0.16412497	0.9792551	0	-0.20625271	0.9698929	0	-0.003323177	0.9991775	0	0.66	100	2e-09	-100	1.2e+03
0	-0.4454168	0.61137974	0	-3.5544414e-17	-3.875211e-17	3.1415927	0	1.5707964	-0.9881345	-0.09687752	0	-0.3454422	0.931839	0	-0.0026737305	0.9991778	0	0.66	100	2e-09	-100	1.2e+03
0	-0.44542214	0.6114254	0	-3.5544408e-17	-3.875211e-17	3.1415927	1.5707964	1.5707964	-0.9881476	-0.096739545	0	-0.34544498	0.9318379	0	-0.0026738187	0.9991778	0	0.66	100	2e-09	-100	1.2e+03
0	-0.44561738	0.6113533	0	-3.554441e-17	-3.8752108e-17	3.1415927	3.1415927	1.5707964	-0.9881474	-0.09674194	0	-0.34603256	0.9316239	0	-0.0026721975	0.9991778	0	0.66	100	2e-09	-100	1.2e+03
0	-0.44561255	0.6113531	0	-3.554441e-17	-3.875211e-17	3.1415927	4.712389	1.5707964	-0.98814684	-0.096747465	0	-0.34601858	0.931629	0	-0.002672232	0.9991778	0	0.66	100	2e-09	-100	1.2e+03
0	-0.10725076	0.3294987	0	-3.5530187e-17	-3.87521e-17	4.712389	0	1.5707964	-0.12887204	-0.9847276	0	-0.19080089	0.9740461	0	-0.0020792962	0.99917763	0	0.66	100	2e-09	-100	1.2e+03
0	-0.10724752	0.32949853	0	-3.5530187e-17	-3.87521e-17	4.712389	1.5707964	1.5707964	-0.12886472	-0.9847285	0	-0.1907985	0.9740464	0	-0.0020792987	0.99917763	0	0.66	100	2e-09	-100	1.2e+03
0	-0.10749961	0.3295126	0	-3.5530183e-17	-3.8752108e-17	4.712389	3.1415927	1.5707964	-0.1294465	-0.98465437	0	-0.19097312	0.97401446	0	-0.0020791758	0.99917763	0	0.66	100	2e-09	-100	1.2e+03
0	-0.10725689	0.3295002	0	-3.5530183e-17	-3.87521e-17	4.712389	4.712389	1.5707964	-0.12889776	-0.98472434	0	-0.19079354	0.9740473	0	-0.0020793336	0.99917763	0	0.66	100	2e-09	-100	1.2e+03
0	0.31237885	0.6174191	0	-3.8383923e-17	-4.197542e-17	0	0	1.5707964	0.9835781	-0.13564047	0	-0.04401217	0.988864	0	-0.0024293305	0.99903417	0	0.66	100	2e-09	-100	1.3e+03
0	0.31241572	0.6176302	0	-3.8383923e-17	-4.1975422e-17	0	1.5707964	1.5707964	0.98366266	-0.13500756	0	-0.04398569	0.9888642	0	-0.00242978	0.9990341	0	0.66	100	2e-09	-100	1.3e+03
0	0.31241104	0.61760485	0	-3.838392e-17	-4.1975422e-17	0	3.1415927	1.5707964	0.98365253	-0.13508373	0	-0.043989647	0.9888641	0	-0.0024297237	0.9990341	0	0.66	100	2e-09	-100	1.3e+03
0	0.3124136	0.6176181	0	-3.8383923e-17	-4.197542e-17	0	4.712389	1.5707964	0.9836578	-0.13504414	0	-0.04398715	0.9888642	0	-0.0024297545	0.999034	0	0.66	100	2e-09	-100	1.3e+03