# t (s)	mx ()	my ()	mz ()	E_total (J)	E_Zeeman (J)	a1 (rad)	a2 (rad)	a3 (rad)	m.region1x ()	m.region1y ()	m.region1z ()	m.region2x ()	m.region2y ()	m.region2z ()	m.region3x ()	m.region3y ()	m.region3z ()	roundness ()	size (m)	Cell_size (m)	var1-d (nm)	var2-s (nm)
0	0.65344924	0.26080608	0	-2.3628997e-17	-2.6070523e-17	0	0	1.5707964	0.9926925	0.0058093537	0	0.96490675	-0.22942853	0	0.008337404	0.99963653	0	0.66	100	2e-09	0	105
0	0.65343904	0.26075342	0	-2.3628998e-17	-2.6070523e-17	0	1.5707964	1.5707964	0.99269253	0.0057796165	0	0.96487635	-0.22955708	0	0.008337026	0.99963653	0	0.66	100	2e-09	0	105
0	0.40932557	0.045651305	0	-2.3615626e-17	-2.6072806e-17	0	3.1415927	1.5707964	0.9883684	0.0936259	0	0.240916	-0.9646616	0	0.002219119	0.9997242	0	0.66	100	2e-09	0	105
0	0.40930858	0.04561386	0	-2.3615626e-17	-2.6072804e-17	0	4.712389	1.5707964	0.9883774	0.093527466	0	0.24085641	-0.9646759	0	0.0022186625	0.9997242	0	0.66	100	2e-09	0	105
0	0.38164416	0.4984713	0	-2.3562359e-17	-2.6071196e-17	1.5707964	0	1.5707964	0.26234594	0.95842284	0	0.87867814	-0.4670136	0	0.0071528377	0.9996625	0	0.66	100	2e-09	0	105
0	2.8550625e-05	0.9944626	0	-2.3411577e-17	-2.6071219e-17	1.5707964	1.5707964	1.5707964	1.8844805e-05	0.9923786	0	6.6520515e-05	0.99130076	0	5.292472e-07	0.9996633	0	0.66	100	2e-09	0	105
0	-0.38161123	0.4984306	0	-2.356236e-17	-2.6071196e-17	1.5707964	3.1415927	1.5707964	-0.26231524	0.95843107	0	-0.8786104	-0.4671442	0	-0.007152099	0.9996625	0	0.66	100	2e-09	0	105
0	-1.7563909e-05	0.33490008	0	-2.3632456e-17	-2.6072925e-17	1.5707964	4.712389	1.5707964	-1.21137955e-05	0.99293274	0	-4.0403615e-05	-0.9937208	0	-3.236203e-07	0.99972874	0	0.66	100	2e-09	0	105
0	-0.4093176	0.04565183	0	-2.3615626e-17	-2.6072806e-17	3.1415927	0	1.5707964	-0.9883678	0.09363298	0	-0.24089307	-0.96466714	0	-0.0022189403	0.9997242	0	0.66	100	2e-09	0	105
0	-0.65344876	0.26079944	0	-2.3629e-17	-2.6070523e-17	3.1415927	1.5707964	1.5707964	-0.9926925	0.005795403	0	-0.96490526	-0.22943445	0	-0.008337386	0.99963653	0	0.66	100	2e-09	0	105
0	-0.65344864	0.26080334	0	-2.3628997e-17	-2.6070523e-17	3.1415927	3.1415927	1.5707964	-0.9926924	0.005808483	0	-0.96490496	-0.22943577	0	-0.008337383	0.99963653	0	0.66	100	2e-09	0	105
0	-0.40932292	0.045615222	0	-2.3615626e-17	-2.6072806e-17	3.1415927	4.712389	1.5707964	-0.9883779	0.09352143	0	-0.24089862	-0.9646658	0	-0.00221899	0.9997242	0	0.66	100	2e-09	0	105
0	0.43135178	-0.029304275	0	-2.355469e-17	-2.6070465e-17	4.712389	0	1.5707964	0.31031984	-0.9443106	0	0.97919524	-0.15215063	0	0.008206198	0.9996343	0	0.66	100	2e-09	0	105
0	2.687478e-05	0.33454993	0	-2.3492591e-17	-2.6071265e-17	4.712389	1.5707964	1.5707964	1.7579092e-05	-0.99295133	0	6.278243e-05	0.991174	0	4.915372e-07	0.999665	0	0.66	100	2e-09	0	105
0	-0.43141958	-0.029278921	0	-2.3554696e-17	-2.6070465e-17	4.712389	3.1415927	1.5707964	-0.31052178	-0.9442462	0	-0.9791971	-0.15213887	0	-0.008206312	0.9996343	0	0.66	100	2e-09	0	105
0	-2.0679796e-05	-0.32459182	0	-2.3575132e-17	-2.607295e-17	4.712389	4.712389	1.5707964	-1.6077413e-05	-0.9924584	0	-4.5764344e-05	-0.99251986	0	-3.7358947e-07	0.99972975	0	0.66	100	2e-09	0	105
0	0.6579172	0.27175552	0	-2.3395765e-17	-2.5846876e-17	0	0	1.5707964	0.9927044	0.0032086007	0	0.97433454	-0.18758908	0	0.006712673	0.999647	0	0.66	100	2e-09	0	110
0	0.65791637	0.27174732	0	-2.3395765e-17	-2.5846873e-17	0	1.5707964	1.5707964	0.99270433	0.0031977338	0	0.974332	-0.18760283	0	0.0067126486	0.9996471	0	0.66	100	2e-09	0	110
0	0.41239023	0.043847755	0	-2.3374708e-17	-2.5848279e-17	0	3.1415927	1.5707964	0.9882516	0.094871424	0	0.24706458	-0.9630296	0	0.001854406	0.9997014	0	0.66	100	2e-09	0	110
0	0.4124002	0.04381769	0	-2.3374708e-17	-2.5848276e-17	0	4.712389	1.5707964	0.98826045	0.09477601	0	0.24708559	-0.9630243	0	0.0018545383	0.9997014	0	0.66	100	2e-09	0	110
0	0.40510714	0.53144926	0	-2.3326968e-17	-2.5847144e-17	1.5707964	0	1.5707964	0.28177842	0.95301765	0	0.9274649	-0.35832742	0	0.006078177	0.9996575	0	0.66	100	2e-09	0	110
0	1.6613516e-05	0.9945692	0	-2.3197038e-17	-2.5847114e-17	1.5707964	1.5707964	1.5707964	1.085616e-05	0.992383	0	3.8740087e-05	0.99166834	0	2.4438228e-07	0.9996563	0	0.66	100	2e-09	0	110
0	-0.40507668	0.531432	0	-2.3326965e-17	-2.5847148e-17	1.5707964	3.1415927	1.5707964	-0.28171346	0.9530365	0	-0.92743856	-0.35839802	0	-0.0060779424	0.9996575	0	0.66	100	2e-09	0	110
0	-1.0849084e-05	0.33301568	0	-2.3391708e-17	-2.584835e-17	1.5707964	4.712389	1.5707964	-7.4903787e-06	0.992934	0	-2.4899342e-05	-0.99359107	0	-1.5764017e-07	0.9997042	0	0.66	100	2e-09	0	110
0	-0.41238612	0.043842755	0	-2.3374708e-17	-2.5848279e-17	3.1415927	0	1.5707964	-0.9882527	0.09485972	0	-0.24705133	-0.96303296	0	-0.0018543252	0.9997014	0	0.66	100	2e-09	0	110
0	-0.6579185	0.27175164	0	-2.3395765e-17	-2.5846871e-17	3.1415927	1.5707964	1.5707964	-0.9927044	0.0031784477	0	-0.97433805	-0.18757048	0	-0.006712704	0.99964696	0	0.66	100	2e-09	0	110
0	-0.6579169	0.27175343	0	-2.3395766e-17	-2.5846871e-17	3.1415927	3.1415927	1.5707964	-0.9927044	0.0032084042	0	-0.9743334	-0.18759507	0	-0.0067126616	0.999647	0	0.66	100	2e-09	0	110
0	-0.41238868	0.043817285	0	-2.3374708e-17	-2.5848279e-17	3.1415927	4.712389	1.5707964	-0.9882598	0.09478312	0	-0.24705188	-0.96303266	0	-0.0018543325	0.9997014	0	0.66	100	2e-09	0	110
0	0.43427834	-0.016825134	0	-2.3322159e-17	-2.5846853e-17	4.712389	0	1.5707964	0.3104653	-0.94426256	0	0.9858309	-0.10585912	0	0.006538675	0.9996463	0	0.66	100	2e-09	0	110
0	1.9159917e-05	0.33279	0	-2.3277102e-17	-2.5847151e-17	4.712389	1.5707964	1.5707964	9.219245e-06	-0.99295044	0	4.7965877e-05	0.9916627	0	2.9479588e-07	0.9996578	0	0.66	100	2e-09	0	110
0	-0.43427128	-0.016826786	0	-2.3322164e-17	-2.5846853e-17	4.712389	3.1415927	1.5707964	-0.31044415	-0.9442693	0	-0.98583114	-0.1058573	0	-0.0065386673	0.99964625	0	0.66	100	2e-09	0	110
0	-1.1993234e-05	-0.32842648	0	-2.3333413e-17	-2.5848377e-17	4.712389	4.712389	1.5707964	-9.27376e-06	-0.99245423	0	-2.6535114e-05	-0.99253035	0	-1.7102678e-07	0.999705	0	0.66	100	2e-09	0	110
0	0.6575979	0.2839867	0	-2.362002e-17	-2.6071621e-17	0	0	1.5707964	0.99270904	0.001155959	0	0.98028284	-0.15507485	0	0.005451607	0.99967873	0	0.66	100	2e-09	0	115
0	0.65759933	0.28398377	0	-2.362002e-17	-2.6071621e-17	0	1.5707964	1.5707964	0.99270916	0.0011214162	0	0.9802868	-0.15504913	0	0.005451635	0.99967873	0	0.66	100	2e-09	0	115
0	0.016793942	0.23789492	0	-2.3448587e-17	-2.607187e-17	0	3.1415927	1.5707964	0.99191856	0.040985852	0	-0.9368814	-0.33358902	0	-0.004471225	0.99968815	0	0.66	100	2e-09	0	115
0	0.4128859	0.047352675	0	-2.3592253e-17	-2.607252e-17	0	4.712389	1.5707964	0.98817873	0.09563938	0	0.2524719	-0.96154505	0	0.0015705206	0.9997132	0	0.66	100	2e-09	0	115
0	0.41177782	0.54901564	0	-2.3549824e-17	-2.6071772e-17	1.5707964	0	1.5707964	0.2886402	0.95100886	0	0.94522876	-0.3075508	0	0.0049887076	0.9996846	0	0.66	100	2e-09	0	115
0	9.409602e-06	0.9946749	0	-2.3434657e-17	-2.6071664e-17	1.5707964	1.5707964	1.5707964	6.390994e-06	0.99238646	0	2.180715e-05	0.99191433	0	1.11217055e-07	0.99968046	0	0.66	100	2e-09	0	115
0	-0.4117909	0.5490151	0	-2.3549824e-17	-2.6071772e-17	1.5707964	3.1415927	1.5707964	-0.2886765	0.9509981	0	-0.94523174	-0.30754146	0	-0.0049887383	0.9996846	0	0.66	100	2e-09	0	115
0	-6.4144406e-06	0.33497977	0	-2.3609336e-17	-2.6072566e-17	1.5707964	4.712389	1.5707964	-4.6145465e-06	0.99293494	0	-1.460951e-05	-0.9934694	0	-7.4069284e-08	0.999715	0	0.66	100	2e-09	0	115
0	-0.016802268	0.23787673	0	-2.3448587e-17	-2.607187e-17	3.1415927	0	1.5707964	-0.9919179	0.04100631	0	0.9368557	-0.33366418	0	0.004471091	0.9996882	0	0.66	100	2e-09	0	115
0	-0.65759647	0.28397688	0	-2.362002e-17	-2.6071618e-17	3.1415927	1.5707964	1.5707964	-0.9927091	0.0011538729	0	-0.98027855	-0.1551023	0	-0.0054515763	0.9996788	0	0.66	100	2e-09	0	115
0	-0.6575968	0.28397974	0	-2.3620017e-17	-2.6071621e-17	3.1415927	3.1415927	1.5707964	-0.99270886	0.0011557702	0	-0.9802796	-0.15509562	0	-0.0054515833	0.99967873	0	0.66	100	2e-09	0	115
0	-0.4129048	0.047352947	0	-2.3592253e-17	-2.607252e-17	3.1415927	4.712389	1.5707964	-0.98818	0.09562618	0	-0.25252724	-0.9615311	0	-0.0015707907	0.9997132	0	0.66	100	2e-09	0	115
0	0.43366715	-0.0019247046	0	-2.3547028e-17	-2.6071618e-17	4.712389	0	1.5707964	0.3100413	-0.9443973	0	0.9894148	-0.069732636	0	0.005256952	0.99967855	0	0.66	100	2e-09	0	115
0	6.9906614e-06	0.33483228	0	-2.3514032e-17	-2.6071697e-17	4.712389	1.5707964	1.5707964	5.2151668e-06	-0.99294984	0	1.573806e-05	0.9920052	0	7.87339e-08	0.9996817	0	0.66	100	2e-09	0	115
0	-0.43366927	-0.001924292	0	-2.354703e-17	-2.6071618e-17	4.712389	3.1415927	1.5707964	-0.31004775	-0.94439524	0	-0.9894148	-0.06973343	0	-0.0052569536	0.99967855	0	0.66	100	2e-09	0	115
0	-7.4575437e-06	-0.32459202	0	-2.3550338e-17	-2.6072586e-17	4.712389	4.712389	1.5707964	-5.635147e-06	-0.99245113	0	-1.671416e-05	-0.9925138	0	-8.633303e-08	0.9997158	0	0.66	100	2e-09	0	115
0	0.660416	0.2895645	0	-2.3390583e-17	-2.5847419e-17	0	0	1.5707964	0.9927099	-0.000102404534	0	0.98391473	-0.1308722	0	0.004623385	0.9996682	0	0.66	100	2e-09	0	120
0	0.66041553	0.2895533	0	-2.3390585e-17	-2.5847419e-17	0	1.5707964	1.5707964	0.9927099	-0.00012695989	0	0.9839135	-0.1308813	0	0.004623378	0.99966806	0	0.66	100	2e-09	0	120
0	0.009489622	0.25700998	0	-2.321803e-17	-2.584757e-17	0	3.1415927	1.5707964	0.99237704	0.027756786	0	-0.96009463	-0.25640094	0	-0.0038135392	0.99967396	0	0.66	100	2e-09	0	120
0	0.4157962	0.04540489	0	-2.3357077e-17	-2.5848067e-17	0	4.712389	1.5707964	0.98808944	0.09657502	0	0.25791845	-0.96005356	0	0.0013806592	0.9996932	0	0.66	100	2e-09	0	120
0	0.41764307	0.5586561	0	-2.331954e-17	-2.5847521e-17	1.5707964	0	1.5707964	0.29321808	0.9496398	0	0.95546573	-0.2733436	0	0.0042453855	0.999672	0	0.66	100	2e-09	0	120
0	5.9775293e-06	0.99470425	0	-2.3214996e-17	-2.5847406e-17	1.5707964	1.5707964	1.5707964	4.2883808e-06	0.9923898	0	1.3586023e-05	0.9920556	0	5.856267e-08	0.9996675	0	0.66	100	2e-09	0	120
0	-0.41761833	0.55863756	0	-2.3319537e-17	-2.5847521e-17	1.5707964	3.1415927	1.5707964	-0.29316384	0.9496561	0	-0.95544595	-0.27341545	0	-0.0042452672	0.9996721	0	0.66	100	2e-09	0	120
0	-3.8898424e-06	0.33308154	0	-2.337429e-17	-2.5848102e-17	1.5707964	4.712389	1.5707964	-3.0678502e-06	0.9929357	0	-8.565097e-06	-0.9933856	0	-3.6506002e-08	0.9996945	0	0.66	100	2e-09	0	120
0	-0.009486582	0.25701684	0	-2.321803e-17	-2.5847574e-17	3.1415927	0	1.5707964	-0.9923776	0.027740443	0	0.96010417	-0.25636393	0	0.003813581	0.999674	0	0.66	100	2e-09	0	120
0	-0.6604125	0.2895464	0	-2.3390583e-17	-2.5847419e-17	3.1415927	1.5707964	1.5707964	-0.9927099	-7.601867e-05	0	-0.9839042	-0.13095288	0	-0.004623325	0.9996682	0	0.66	100	2e-09	0	120
0	-0.66041344	0.2895539	0	-2.3390582e-17	-2.5847422e-17	3.1415927	3.1415927	1.5707964	-0.9927099	-7.60967e-05	0	-0.9839071	-0.13093036	0	-0.004623342	0.99966806	0	0.66	100	2e-09	0	120
0	-0.41574037	0.045398604	0	-2.3357077e-17	-2.5848067e-17	3.1415927	4.712389	1.5707964	-0.9880873	0.09659888	0	-0.2577539	-0.9600963	0	-0.0013799849	0.9996932	0	0.66	100	2e-09	0	120
0	0.43506	0.0041580093	0	-2.331798e-17	-2.5847422e-17	4.712389	0	1.5707964	0.3096005	-0.94453794	0	0.9911566	-0.042656276	0	0.004423102	0.99966824	0	0.66	100	2e-09	0	120
0	5.593468e-06	0.3329797	0	-2.3293614e-17	-2.5847432e-17	4.712389	1.5707964	1.5707964	3.7193888e-06	-0.9929491	0	1.3005541e-05	0.9922197	0	5.533762e-08	0.99966854	0	0.66	100	2e-09	0	120
0	-0.43505546	0.0041567557	0	-2.331798e-17	-2.5847422e-17	4.712389	3.1415927	1.5707964	-0.30958688	-0.9445423	0	-0.99115646	-0.04265569	0	-0.004423097	0.99966824	0	0.66	100	2e-09	0	120
0	-4.659035e-06	-0.3284196	0	-2.3314532e-17	-2.5848124e-17	4.712389	4.712389	1.5707964	-3.8006997e-06	-0.9924481	0	-1.0132199e-05	-0.992506	0	-4.4270095e-08	0.9996953	0	0.66	100	2e-09	0	120
0	0.65908134	0.29751283	0	-2.361695e-17	-2.6071906e-17	0	0	1.5707964	0.9927094	-0.0010892003	0	0.98628914	-0.112145245	0	0.003921616	0.99968964	0	0.66	100	2e-09	0	125
0	0.65907973	0.29750025	0	-2.3616953e-17	-2.6071906e-17	0	1.5707964	1.5707964	0.9927094	-0.0010833333	0	0.98628426	-0.11218882	0	0.003921593	0.99968964	0	0.66	100	2e-09	0	125
0	0.0063128085	0.27119118	0	-2.3443738e-17	-2.607201e-17	0	3.1415927	1.5707964	0.99255234	0.020572351	0	-0.97032994	-0.21300374	0	-0.0032016109	0.99969363	0	0.66	100	2e-09	0	125
0	0.4159733	0.048779752	0	-2.3578782e-17	-2.6072374e-17	0	4.712389	1.5707964	0.9880273	0.09722211	0	0.26227286	-0.95882875	0	0.0012130488	0.9997076	0	0.66	100	2e-09	0	125
0	0.41948953	0.567983	0	-2.3545276e-17	-2.6071975e-17	1.5707964	0	1.5707964	0.2963221	0.94869804	0	0.9621496	-0.24818149	0	0.0035999087	0.99969226	0	0.66	100	2e-09	0	125
0	3.9045212e-06	0.9947594	0	-2.3448727e-17	-2.6071861e-17	1.5707964	1.5707964	1.5707964	2.9080318e-06	0.9923922	0	8.806263e-06	0.9921551	0	3.2443165e-08	0.999688	0	0.66	100	2e-09	0	125
0	-0.4195108	0.56796557	0	-2.3545278e-17	-2.6071975e-17	1.5707964	3.1415927	1.5707964	-0.2963938	0.9486764	0	-0.962142	-0.24821219	0	-0.0035999008	0.99969226	0	0.66	100	2e-09	0	125
0	-2.6619139e-06	0.33503014	0	-2.359606e-17	-2.6072397e-17	1.5707964	4.712389	1.5707964	-2.1343146e-06	0.9929364	0	-5.8533255e-06	-0.99331295	0	-2.0806775e-08	0.99970853	0	0.66	100	2e-09	0	125
0	-0.0063116183	0.27119473	0	-2.3443743e-17	-2.607201e-17	3.1415927	0	1.5707964	-0.9925525	0.020565456	0	0.9703336	-0.21298622	0	0.0032016248	0.9996937	0	0.66	100	2e-09	0	125
0	-0.65907925	0.2974942	0	-2.3616953e-17	-2.6071906e-17	3.1415927	1.5707964	1.5707964	-0.9927094	-0.0010889359	0	-0.9862828	-0.112201415	0	-0.003921586	0.9996896	0	0.66	100	2e-09	0	125
0	-0.65908015	0.2975044	0	-2.3616948e-17	-2.6071902e-17	3.1415927	3.1415927	1.5707964	-0.9927094	-0.0010818142	0	-0.9862854	-0.11217792	0	-0.0039215987	0.99968964	0	0.66	100	2e-09	0	125
0	-0.4159738	0.048778057	0	-2.3578782e-17	-2.6072374e-17	3.1415927	4.712389	1.5707964	-0.98802775	0.09721672	0	-0.262274	-0.95882845	0	-0.0012130524	0.99970746	0	0.66	100	2e-09	0	125
0	0.43368003	0.013992181	0	-2.3544689e-17	-2.6071907e-17	4.712389	0	1.5707964	0.3090556	-0.94471174	0	0.9919872	-0.021541039	0	0.0037219888	0.9996898	0	0.66	100	2e-09	0	125
0	3.187365e-06	0.3349587	0	-2.3526797e-17	-2.6071884e-17	4.712389	1.5707964	1.5707964	2.4112956e-06	-0.9929488	0	7.152004e-06	0.9923773	0	2.5930763e-08	0.99968874	0	0.66	100	2e-09	0	125
0	-0.4336857	0.013993653	0	-2.3544692e-17	-2.607191e-17	4.712389	3.1415927	1.5707964	-0.30907273	-0.9447062	0	-0.9919872	-0.021542056	0	-0.0037219948	0.99968976	0	0.66	100	2e-09	0	125
0	-3.143955e-06	-0.3245854	0	-2.3535753e-17	-2.6072417e-17	4.712389	4.712389	1.5707964	-2.6143055e-06	-0.9924457	0	-6.8194945e-06	-0.9924925	0	-2.481946e-08	0.9997091	0	0.66	100	2e-09	0	125
0	0.6613561	0.3003975	0	-2.3388573e-17	-2.58476e-17	0	0	1.5707964	0.9927086	-0.0016859433	0	0.9879449	-0.09679661	0	0.0034148563	0.99967504	0	0.66	100	2e-09	0	130
0	0.6613554	0.30038786	0	-2.3388572e-17	-2.58476e-17	0	1.5707964	1.5707964	0.9927086	-0.0016932351	0	0.98794276	-0.09681828	0	0.0034148484	0.99967504	0	0.66	100	2e-09	0	130
0	0.0044089234	0.27821797	0	-2.3214912e-17	-2.5847675e-17	0	3.1415927	1.5707964	0.9926415	0.015732396	0	-0.97665906	-0.18075651	0	-0.0027556152	0.9996781	0	0.66	100	2e-09	0	130
0	0.41853735	0.046691027	0	-2.3346278e-17	-2.5847957e-17	0	4.712389	1.5707964	0.987952	0.097999245	0	0.2665717	-0.95761514	0	0.0010884632	0.999689	0	0.66	100	2e-09	0	130
0	0.4229209	0.5731861	0	-2.3316473e-17	-2.5847649e-17	1.5707964	0	1.5707964	0.2986568	0.9479825	0	0.9669749	-0.22810128	0	0.0031310285	0.99967706	0	0.66	100	2e-09	0	130
0	2.9739988e-06	0.99476254	0	-2.3226459e-17	-2.5847545e-17	1.5707964	1.5707964	1.5707964	2.153771e-06	0.9923948	0	6.747469e-06	0.9922199	0	2.1007779e-08	0.99967307	0	0.66	100	2e-09	0	130
0	-0.4229083	0.5731852	0	-2.3316473e-17	-2.5847649e-17	1.5707964	3.1415927	1.5707964	-0.29862222	0.9479932	0	-0.9669719	-0.2281143	0	-0.0031310073	0.999677	0	0.66	100	2e-09	0	130
0	-2.1752683e-06	0.33312297	0	-2.3363673e-17	-2.5847976e-17	1.5707964	4.712389	1.5707964	-1.6561866e-06	0.99293697	0	-4.854072e-06	-0.9932577	0	-1.5221591e-08	0.9996897	0	0.66	100	2e-09	0	130
0	-0.0044108564	0.27821487	0	-2.3214908e-17	-2.584768e-17	3.1415927	0	1.5707964	-0.9926411	0.015757471	0	0.97665286	-0.180791	0	0.0027555965	0.99967813	0	0.66	100	2e-09	0	130
0	-0.6613557	0.3003877	0	-2.3388572e-17	-2.5847598e-17	3.1415927	1.5707964	1.5707964	-0.9927086	-0.0017015045	0	-0.9879436	-0.09681037	0	-0.0034148516	0.99967504	0	0.66	100	2e-09	0	130
0	-0.66135514	0.3003799	0	-2.3388573e-17	-2.58476e-17	3.1415927	3.1415927	1.5707964	-0.99270856	-0.0017076427	0	-0.98794186	-0.09682779	0	-0.0034148446	0.99967504	0	0.66	100	2e-09	0	130
0	-0.41852245	0.046686195	0	-2.3346281e-17	-2.584796e-17	3.1415927	4.712389	1.5707964	-0.98795223	0.097996846	0	-0.2665268	-0.95762724	0	-0.00108833	0.999689	0	0.66	100	2e-09	0	130
0	0.4347154	0.016906343	0	-2.331652e-17	-2.5847602e-17	4.712389	0	1.5707964	0.30861482	-0.9448523	0	0.9923121	-0.0041040075	0	0.0032192767	0.9996753	0	0.66	100	2e-09	0	130
0	2.3263024e-06	0.33307147	0	-2.3303911e-17	-2.5847563e-17	4.712389	1.5707964	1.5707964	1.7664146e-06	-0.99294835	0	5.196411e-06	0.9924889	0	1.6095283e-08	0.99967366	0	0.66	100	2e-09	0	130
0	-0.43471634	0.016906546	0	-2.331652e-17	-2.5847602e-17	4.712389	3.1415927	1.5707964	-0.3086176	-0.9448513	0	-0.9923121	-0.004104274	0	-0.003219278	0.99967515	0	0.66	100	2e-09	0	130
0	-2.3101595e-06	-0.32841244	0	-2.3302743e-17	-2.5847993e-17	4.712389	4.712389	1.5707964	-1.9440115e-06	-0.9924435	0	-4.9704963e-06	-0.9924842	0	-1.6069924e-08	0.9996903	0	0.66	100	2e-09	0	130
0	0.6596842	0.30621696	0	-2.3615604e-17	-2.6072013e-17	0	0	1.5707964	0.99270767	-0.0022308193	0	0.9890643	-0.08482003	0	0.002969927	0.9996939	0	0.66	100	2e-09	0	135
0	0.45955592	0.6001397	0	-2.3513838e-17	-2.6071962e-17	0	1.5707964	1.5707964	0.98619044	-0.114783704	0	0.39516982	0.9120494	0	0.0012777159	0.9996917	0	0.66	100	2e-09	0	135
0	0.0032142862	0.28701112	0	-2.3441648e-17	-2.6072076e-17	0	3.1415927	1.5707964	0.9926921	0.012159571	0	-0.980641	-0.15699679	0	-0.0023600298	0.9996962	0	0.66	100	2e-09	0	135
0	0.41843665	0.049942132	0	-2.3570025e-17	-2.6072291e-17	0	4.712389	1.5707964	0.9879022	0.09850876	0	0.2700498	-0.95661503	0	0.00097449776	0.99970454	0	0.66	100	2e-09	0	135
0	0.4232716	0.5793295	0	-2.3543173e-17	-2.6072056e-17	1.5707964	0	1.5707964	0.30038482	0.947449	0	0.9703579	-0.21279779	0	0.0027155983	0.99969536	0	0.66	100	2e-09	0	135
0	2.101119e-06	0.9947993	0	-2.3458164e-17	-2.6071964e-17	1.5707964	1.5707964	1.5707964	1.579855e-06	0.9923966	0	4.7290073e-06	0.992267	0	1.2938813e-08	0.99969196	0	0.66	100	2e-09	0	135
0	-0.42324293	0.57933474	0	-2.3543172e-17	-2.6072056e-17	1.5707964	3.1415927	1.5707964	-0.30030078	0.947475	0	-0.97035563	-0.21280783	0	-0.0027155674	0.99969536	0	0.66	100	2e-09	0	135
0	-1.6245943e-06	0.3350631	0	-2.3587487e-17	-2.607231e-17	1.5707964	4.712389	1.5707964	-1.2608632e-06	0.99293727	0	-3.6171002e-06	-0.99321127	0	-9.828025e-09	0.99970514	0	0.66	100	2e-09	0	135
0	-0.0031967629	0.28704476	0	-2.3441648e-17	-2.6072076e-17	3.1415927	0	1.5707964	-0.9926952	0.011900375	0	0.98069656	-0.15663636	0	0.0023601812	0.99969625	0	0.66	100	2e-09	0	135
0	-0.45952317	0.60015106	0	-2.3513838e-17	-2.6071959e-17	3.1415927	1.5707964	1.5707964	-0.9861896	-0.11479135	0	-0.39507255	0.91209126	0	-0.0012774837	0.9996917	0	0.66	100	2e-09	0	135
0	-0.65968585	0.30623236	0	-2.3615603e-17	-2.6072018e-17	3.1415927	3.1415927	1.5707964	-0.9927076	-0.0022467875	0	-0.9890694	-0.084757745	0	-0.0029699448	0.9996939	0	0.66	100	2e-09	0	135
0	-0.4184264	0.04994127	0	-2.3570027e-17	-2.6072295e-17	3.1415927	4.712389	1.5707964	-0.9879017	0.09851442	0	-0.27001962	-0.9566233	0	-0.0009744195	0.9997045	0	0.66	100	2e-09	0	135
0	0.43320036	0.024229363	0	-2.354375e-17	-2.6072023e-17	4.712389	0	1.5707964	0.30819887	-0.94498473	0	0.99235046	0.0095278295	0	0.002780706	0.99969405	0	0.66	100	2e-09	0	135
0	1.7157851e-06	0.3350253	0	-2.3535171e-17	-2.607198e-17	4.712389	1.5707964	1.5707964	1.3149906e-06	-0.9929479	0	3.8369753e-06	0.99257314	0	1.0446811e-08	0.9996925	0	0.66	100	2e-09	0	135
0	-0.43319255	0.02422728	0	-2.354375e-17	-2.6072023e-17	4.712389	3.1415927	1.5707964	-0.30817536	-0.94499207	0	-0.99235034	0.009529037	0	-0.0027806987	0.99969405	0	0.66	100	2e-09	0	135
0	-1.7193893e-06	-0.32457933	0	-2.352611e-17	-2.607232e-17	4.712389	4.712389	1.5707964	-1.4478838e-06	-0.9924416	0	-3.7146308e-06	-0.99247485	0	-1.0557655e-08	0.9997057	0	0.66	100	2e-09	0	135
0	0.6617521	0.30761063	0	-2.3387624e-17	-2.5847675e-17	0	0	1.5707964	0.9927069	-0.0025173745	0	0.9899177	-0.0743287	0	0.0026314086	0.9996781	0	0.66	100	2e-09	0	140
0	0.45225465	0.60217303	0	-2.3289492e-17	-2.5847624e-17	0	1.5707964	1.5707964	0.98606735	-0.11585577	0	0.3696048	0.9226988	0	0.0010918733	0.999676	0	0.66	100	2e-09	0	140
0	0.0023463843	0.29081914	0	-2.3213441e-17	-2.5847723e-17	0	3.1415927	1.5707964	0.9927243	0.009211075	0	-0.98362345	-0.13643357	0	-0.0020615666	0.9996798	0	0.66	100	2e-09	0	140
0	0.4207242	0.047733106	0	-2.3339032e-17	-2.5847897e-17	0	4.712389	1.5707964	0.98783994	0.099145584	0	0.27344754	-0.9556328	0	0.00088528276	0.99968666	0	0.66	100	2e-09	0	140
0	0.42569706	0.582391	0	-2.331497e-17	-2.5847705e-17	1.5707964	0	1.5707964	0.30161387	0.9470673	0	0.9730778	-0.19957325	0	0.002399643	0.9996792	0	0.66	100	2e-09	0	140
0	1.6218967e-06	0.99479145	0	-2.3234367e-17	-2.5847624e-17	1.5707964	1.5707964	1.5707964	1.2242742e-06	0.99239856	0	3.6326192e-06	0.9923002	0	8.822207e-09	0.9996761	0	0.66	100	2e-09	0	140
0	-0.42569363	0.582393	0	-2.3314967e-17	-2.5847703e-17	1.5707964	3.1415927	1.5707964	-0.30160293	0.94707066	0	-0.9730782	-0.19957092	0	-0.0023996402	0.9996792	0	0.66	100	2e-09	0	140
0	-1.1891237e-06	0.3331504	0	-2.3356596e-17	-2.5847905e-17	1.5707964	4.712389	1.5707964	-9.5203296e-07	0.9929378	0	-2.6095659e-06	-0.9931738	0	-5.7907976e-09	0.999687	0	0.66	100	2e-09	0	140
0	-0.0023473077	0.29081982	0	-2.3213442e-17	-2.5847727e-17	3.1415927	0	1.5707964	-0.9927241	0.009235476	0	0.9836206	-0.13645585	0	0.0020615598	0.99967986	0	0.66	100	2e-09	0	140
0	-0.45225087	0.60217416	0	-2.3289489e-17	-2.5847624e-17	3.1415927	1.5707964	1.5707964	-0.98606724	-0.11585678	0	-0.3695934	0.92270327	0	-0.0010918487	0.999676	0	0.66	100	2e-09	0	140
0	-0.66175246	0.3076181	0	-2.3387624e-17	-2.5847675e-17	3.1415927	3.1415927	1.5707964	-0.9927071	-0.0025137	0	-0.98991907	-0.07431002	0	-0.0026314124	0.9996781	0	0.66	100	2e-09	0	140
0	-0.42072567	0.04774256	0	-2.3339032e-17	-2.5847895e-17	3.1415927	4.712389	1.5707964	-0.9878373	0.09917206	0	-0.27345443	-0.955631	0	-0.000885297	0.9996866	0	0.66	100	2e-09	0	140
0	0.43413597	0.025367582	0	-2.331589e-17	-2.584768e-17	4.712389	0	1.5707964	0.30773836	-0.9451311	0	0.99222046	0.021555668	0	0.0024489525	0.9996782	0	0.66	100	2e-09	0	140
0	1.2140758e-06	0.33312228	0	-2.3310853e-17	-2.5847639e-17	4.712389	1.5707964	1.5707964	9.765424e-07	-0.9929474	0	2.6590458e-06	0.9926377	0	6.5791945e-09	0.99967664	0	0.66	100	2e-09	0	140
0	-0.43416035	0.025373546	0	-2.331589e-17	-2.584768e-17	4.712389	3.1415927	1.5707964	-0.30781138	-0.94510794	0	-0.9922206	0.021550415	0	-0.0024489728	0.9996782	0	0.66	100	2e-09	0	140
0	-1.3292032e-06	-0.3284068	0	-2.3294701e-17	-2.584792e-17	4.712389	4.712389	1.5707964	-1.1360476e-06	-0.99243987	0	-2.8448308e-06	-0.9924682	0	-6.754394e-09	0.99968755	0	0.66	100	2e-09	0	140
0	0.65994704	0.31223652	0	-2.3614925e-17	-2.6072071e-17	0	0	1.5707964	0.99270624	-0.0027974388	0	0.9905042	-0.066144705	0	0.0023276468	0.99969596	0	0.66	100	2e-09	0	145
0	0.44728768	0.60468245	0	-2.3519594e-17	-2.6072023e-17	0	1.5707964	1.5707964	0.98604333	-0.11606273	0	0.35872754	0.92699367	0	0.00095880637	0.99969417	0	0.66	100	2e-09	0	145
0	0.0017852257	0.29726824	0	-2.344059e-17	-2.6072108e-17	0	3.1415927	1.5707964	0.9927411	0.007212296	0	-0.98556066	-0.12119039	0	-0.0017937903	0.9996974	0	0.66	100	2e-09	0	145
0	0.4203756	0.05089062	0	-2.356395e-17	-2.6072248e-17	0	4.712389	1.5707964	0.9877964	0.09958603	0	0.27616304	-0.9548369	0	0.0008021458	0.99970275	0	0.66	100	2e-09	0	145
0	0.4253643	0.5868833	0	-2.3542083e-17	-2.6072094e-17	1.5707964	0	1.5707964	0.302598	0.9467604	0	0.9750466	-0.1893837	0	0.0021150236	0.99969685	0	0.66	100	2e-09	0	145
0	1.19243e-06	0.9948203	0	-2.3464866e-17	-2.6072023e-17	1.5707964	1.5707964	1.5707964	9.4268285e-07	0.9924	0	2.6395248e-06	0.9923248	0	5.5662235e-09	0.99969417	0	0.66	100	2e-09	0	145
0	-0.42537317	0.5868836	0	-2.3542083e-17	-2.6072094e-17	1.5707964	3.1415927	1.5707964	-0.30262312	0.94675267	0	-0.9750482	-0.18937506	0	-0.0021150338	0.9996968	0	0.66	100	2e-09	0	145
0	-8.424826e-07	0.33508542	0	-2.358158e-17	-2.6072258e-17	1.5707964	4.712389	1.5707964	-7.1057144e-07	0.9929382	0	-1.8202746e-06	-0.99314284	0	-3.6881516e-09	0.99970305	0	0.66	100	2e-09	0	145
0	-0.001784186	0.29728013	0	-2.3440586e-17	-2.6072111e-17	3.1415927	0	1.5707964	-0.992741	0.007222388	0	0.9855637	-0.121164754	0	0.0017937971	0.99969745	0	0.66	100	2e-09	0	145
0	-0.44727543	0.60468584	0	-2.3519594e-17	-2.6072023e-17	3.1415927	1.5707964	1.5707964	-0.986043	-0.116066165	0	-0.3586912	0.92700756	0	-0.0009587367	0.99969417	0	0.66	100	2e-09	0	145
0	-0.6599486	0.31224912	0	-2.3614925e-17	-2.6072071e-17	3.1415927	3.1415927	1.5707964	-0.99270624	-0.0028376263	0	-0.9905093	-0.06606657	0	-0.0023276596	0.99969596	0	0.66	100	2e-09	0	145
0	-0.42038697	0.050890904	0	-2.3563952e-17	-2.6072247e-17	3.1415927	4.712389	1.5707964	-0.9877974	0.099577576	0	-0.2761963	-0.9548274	0	-0.0008022118	0.99970275	0	0.66	100	2e-09	0	145
0	0.43264425	0.031270407	0	-2.3543302e-17	-2.6072076e-17	4.712389	0	1.5707964	0.30749112	-0.94520986	0	0.99201816	0.030935101	0	0.0021529947	0.99969625	0	0.66	100	2e-09	0	145
0	8.808419e-07	0.3350641	0	-2.3540983e-17	-2.6072036e-17	4.712389	1.5707964	1.5707964	7.26782e-07	-0.9929473	0	1.919336e-06	0.9926871	0	3.890414e-09	0.9996946	0	0.66	100	2e-09	0	145
0	-0.43263528	0.031266697	0	-2.3543304e-17	-2.6072076e-17	4.712389	3.1415927	1.5707964	-0.30746403	-0.9452184	0	-0.9920182	0.030932497	0	-0.002152988	0.99969625	0	0.66	100	2e-09	0	145
0	-1.1058427e-06	-0.32457462	0	-2.3519316e-17	-2.6072268e-17	4.712389	4.712389	1.5707964	-9.045447e-07	-0.99243844	0	-2.4179717e-06	-0.99246156	0	-4.7977395e-09	0.9997036	0	0.66	100	2e-09	0	145
0	0.6619258	0.31271982	0	-2.3387126e-17	-2.5847713e-17	0	0	1.5707964	0.992706	-0.0029376736	0	0.99098295	-0.0585824	0	0.002088597	0.99967957	0	0.66	100	2e-09	0	150
0	0.44576603	0.60463375	0	-2.3294402e-17	-2.5847675e-17	0	1.5707964	1.5707964	0.98605484	-0.11596167	0	0.35038644	0.930185	0	0.00085664075	0.9996779	0	0.66	100	2e-09	0	150
0	0.0013386398	0.29937685	0	-2.3212665e-17	-2.5847746e-17	0	3.1415927	1.5707964	0.99275255	0.005484181	0	-0.98715097	-0.10703438	0	-0.0015856139	0.99968076	0	0.66	100	2e-09	0	150
0	0.42246887	0.048598383	0	-2.3333897e-17	-2.5847862e-17	0	4.712389	1.5707964	0.9877425	0.10013322	0	0.27892888	-0.9540233	0	0.0007352413	0.99968517	0	0.66	100	2e-09	0	150
0	0.42737994	0.5887023	0	-2.3314167e-17	-2.5847733e-17	1.5707964	0	1.5707964	0.30349454	0.94648	0	0.9767536	-0.18005334	0	0.0018916703	0.99968016	0	0.66	100	2e-09	0	150
0	9.3322825e-07	0.9948076	0	-2.3240088e-17	-2.584767e-17	1.5707964	1.5707964	1.5707964	7.410746e-07	0.9924016	0	2.0548664e-06	0.9923433	0	3.8636054e-09	0.9996778	0	0.66	100	2e-09	0	150
0	-0.42735335	0.58870775	0	-2.3314165e-17	-2.5847733e-17	1.5707964	3.1415927	1.5707964	-0.3034162	0.94650435	0	-0.97675216	-0.18006127	0	-0.0018916476	0.99968016	0	0.66	100	2e-09	0	150
0	-6.9169914e-07	0.33316916	0	-2.335162e-17	-2.5847869e-17	1.5707964	4.712389	1.5707964	-5.896655e-07	0.9929385	0	-1.4829791e-06	-0.9931165	0	-2.5588318e-09	0.9996854	0	0.66	100	2e-09	0	150
0	-0.0013397742	0.29937187	0	-2.3212667e-17	-2.5847746e-17	3.1415927	0	1.5707964	-0.9927523	0.0055026133	0	0.9871474	-0.1070677	0	0.0015856078	0.9996807	0	0.66	100	2e-09	0	150
0	-0.44577867	0.60463035	0	-2.3294399e-17	-2.5847672e-17	3.1415927	1.5707964	1.5707964	-0.9860552	-0.115957975	0	-0.3504241	0.9301711	0	-0.00085670536	0.9996779	0	0.66	100	2e-09	0	150
0	-0.6619252	0.31271413	0	-2.3387122e-17	-2.5847713e-17	3.1415927	3.1415927	1.5707964	-0.992706	-0.0029251373	0	-0.9909812	-0.05861201	0	-0.0020885922	0.9996795	0	0.66	100	2e-09	0	150
0	-0.4224679	0.048599403	0	-2.3333897e-17	-2.5847859e-17	3.1415927	4.712389	1.5707964	-0.98774207	0.10013703	0	-0.2789262	-0.9540239	0	-0.0007352363	0.99968517	0	0.66	100	2e-09	0	150
0	0.43363413	0.0313312	0	-2.3315568e-17	-2.5847722e-17	4.712389	0	1.5707964	0.30723244	-0.9452921	0	0.99174863	0.039606005	0	0.00192128	0.9996798	0	0.66	100	2e-09	0	150
0	7.535537e-07	0.33315295	0	-2.3315761e-17	-2.5847685e-17	4.712389	1.5707964	1.5707964	6.156503e-07	-0.992947	0	1.6414145e-06	0.99272746	0	3.3702812e-09	0.99967825	0	0.66	100	2e-09	0	150
0	-0.43363047	0.03133054	0	-2.3315568e-17	-2.5847722e-17	4.712389	3.1415927	1.5707964	-0.3072216	-0.9452956	0	-0.9917486	0.039607458	0	-0.0019212771	0.99967974	0	0.66	100	2e-09	0	150
0	-8.060889e-07	-0.32840255	0	-2.3288913e-17	-2.5847874e-17	4.712389	4.712389	1.5707964	-6.984735e-07	-0.992437	0	-1.7164367e-06	-0.99245656	0	-3.0936507e-09	0.9996859	0	0.66	100	2e-09	0	150
0	0.6600618	0.31659108	0	-2.3614547e-17	-2.60721e-17	0	0	1.5707964	0.99270546	-0.0030758677	0	0.99131143	-0.052765947	0	0.0018707789	0.9996971	0	0.66	100	2e-09	0	155
0	0.4426021	0.60650426	0	-2.3523829e-17	-2.6072061e-17	0	1.5707964	1.5707964	0.9860655	-0.11586716	0	0.3447998	0.9322778	0	0.00076879765	0.99969566	0	0.66	100	2e-09	0	155
0	0.0010366337	0.30453414	0	-2.3440002e-17	-2.6072126e-17	0	3.1415927	1.5707964	0.99275935	0.0041024582	0	-0.9882315	-0.09622058	0	-0.0013968371	0.999698	0	0.66	100	2e-09	0	155
0	0.42193133	0.051675376	0	-2.3559553e-17	-2.6072218e-17	0	4.712389	1.5707964	0.9877061	0.10049852	0	0.28106532	-0.95338714	0	0.0006720785	0.9997016	0	0.66	100	2e-09	0	155
0	0.42670444	0.5922154	0	-2.3541482e-17	-2.6072113e-17	1.5707964	0	1.5707964	0.304102	0.94628924	0	0.9780056	-0.1728708	0	0.0016878054	0.9996977	0	0.66	100	2e-09	0	155